 Entering Gaussian System, Link 0=g09
 Input=/Users/fredziegler/Desktop/jmol-14.2.9_2014.11.23/butadieneMO.gjf
 Output=/Users/fredziegler/Desktop/jmol-14.2.9_2014.11.23/butadieneMO.log
 Initial command:
 /Applications/g09/l1.exe "/Users/fredziegler/Scratch/Gau-14665.inp" -scrdir="/Users/fredziegler/Scratch/"
 Entering Link 1 = /Applications/g09/l1.exe PID=     14666.
  
 Copyright (c) 1988,1990,1992,1993,1995,1998,2003,2009,2013,
            Gaussian, Inc.  All Rights Reserved.
  
 This is part of the Gaussian(R) 09 program.  It is based on
 the Gaussian(R) 03 system (copyright 2003, Gaussian, Inc.),
 the Gaussian(R) 98 system (copyright 1998, Gaussian, Inc.),
 the Gaussian(R) 94 system (copyright 1995, Gaussian, Inc.),
 the Gaussian 92(TM) system (copyright 1992, Gaussian, Inc.),
 the Gaussian 90(TM) system (copyright 1990, Gaussian, Inc.),
 the Gaussian 88(TM) system (copyright 1988, Gaussian, Inc.),
 the Gaussian 86(TM) system (copyright 1986, Carnegie Mellon
 University), and the Gaussian 82(TM) system (copyright 1983,
 Carnegie Mellon University). Gaussian is a federally registered
 trademark of Gaussian, Inc.
  
 This software contains proprietary and confidential information,
 including trade secrets, belonging to Gaussian, Inc.
  
 This software is provided under written license and may be
 used, copied, transmitted, or stored only in accord with that
 written license.
  
 The following legend is applicable only to US Government
 contracts under FAR:
  
                    RESTRICTED RIGHTS LEGEND
  
 Use, reproduction and disclosure by the US Government is
 subject to restrictions as set forth in subparagraphs (a)
 and (c) of the Commercial Computer Software - Restricted
 Rights clause in FAR 52.227-19.
  
 Gaussian, Inc.
 340 Quinnipiac St., Bldg. 40, Wallingford CT 06492
  
  
 ---------------------------------------------------------------
 Warning -- This program may not be used in any manner that
 competes with the business of Gaussian, Inc. or will provide
 assistance to any competitor of Gaussian, Inc.  The licensee
 of this program is prohibited from giving any competitor of
 Gaussian, Inc. access to this program.  By using this program,
 the user acknowledges that Gaussian, Inc. is engaged in the
 business of creating and licensing software in the field of
 computational chemistry and represents and warrants to the
 licensee that it is not a competitor of Gaussian, Inc. and that
 it will not use this program in any manner prohibited above.
 ---------------------------------------------------------------
  

 Cite this work as:
 Gaussian 09, Revision D.01,
 M. J. Frisch, G. W. Trucks, H. B. Schlegel, G. E. Scuseria, 
 M. A. Robb, J. R. Cheeseman, G. Scalmani, V. Barone, B. Mennucci, 
 G. A. Petersson, H. Nakatsuji, M. Caricato, X. Li, H. P. Hratchian, 
 A. F. Izmaylov, J. Bloino, G. Zheng, J. L. Sonnenberg, M. Hada, 
 M. Ehara, K. Toyota, R. Fukuda, J. Hasegawa, M. Ishida, T. Nakajima, 
 Y. Honda, O. Kitao, H. Nakai, T. Vreven, J. A. Montgomery, Jr., 
 J. E. Peralta, F. Ogliaro, M. Bearpark, J. J. Heyd, E. Brothers, 
 K. N. Kudin, V. N. Staroverov, T. Keith, R. Kobayashi, J. Normand, 
 K. Raghavachari, A. Rendell, J. C. Burant, S. S. Iyengar, J. Tomasi, 
 M. Cossi, N. Rega, J. M. Millam, M. Klene, J. E. Knox, J. B. Cross, 
 V. Bakken, C. Adamo, J. Jaramillo, R. Gomperts, R. E. Stratmann, 
 O. Yazyev, A. J. Austin, R. Cammi, C. Pomelli, J. W. Ochterski, 
 R. L. Martin, K. Morokuma, V. G. Zakrzewski, G. A. Voth, 
 P. Salvador, J. J. Dannenberg, S. Dapprich, A. D. Daniels, 
 O. Farkas, J. B. Foresman, J. V. Ortiz, J. Cioslowski, 
 and D. J. Fox, Gaussian, Inc., Wallingford CT, 2013.
 
 ******************************************
 Gaussian 09:  EM64M-G09RevD.01 24-Apr-2013
                25-Nov-2016 
 ******************************************
 %chk=butadieneMO.chk
 -------------------------------------------------
 # opt hf/3-21g geom=connectivity pop=full gfprint
 -------------------------------------------------
 1/18=20,19=15,38=1,57=2/1,3;
 2/9=110,12=2,17=6,18=5,40=1/2;
 3/5=5,11=9,16=1,24=100,25=1,30=1,71=1/1,2,3;
 4//1;
 5/5=2,38=5/2;
 6/7=3,28=1/1;
 7//1,2,3,16;
 1/18=20,19=15/3(2);
 2/9=110/2;
 99//99;
 2/9=110/2;
 3/5=5,11=9,16=1,25=1,30=1,71=1/1,2,3;
 4/5=5,16=3,69=1/1;
 5/5=2,38=5/2;
 7//1,2,3,16;
 1/18=20,19=15/3(-5);
 2/9=110/2;
 6/7=3,19=2,28=1/1;
 99/9=1/99;
 ---------
 butadiene
 ---------
 Symbolic Z-matrix:
 Charge =  0 Multiplicity = 1
 C                     1.09424  -1.47221   0. 
 C                     0.       -0.73325   0. 
 C                     0.00061   0.73392   0. 
 C                    -1.09454   1.47161   0. 
 H                     2.07448  -1.03236   0. 
 H                     1.05202  -2.54385   0. 
 H                    -0.96633  -1.20581   0. 
 H                     0.96619   1.20775   0. 
 H                    -1.05393   2.5433    0. 
 H                    -2.07426   1.03058   0. 
 

 GradGradGradGradGradGradGradGradGradGradGradGradGradGradGradGradGradGrad
 Berny optimization.
 Initialization pass.
                           ----------------------------
                           !    Initial Parameters    !
                           ! (Angstroms and Degrees)  !
 --------------------------                            --------------------------
 ! Name  Definition              Value          Derivative Info.                !
 --------------------------------------------------------------------------------
 ! R1    R(1,2)                  1.3204         estimate D2E/DX2                !
 ! R2    R(1,5)                  1.0744         estimate D2E/DX2                !
 ! R3    R(1,6)                  1.0725         estimate D2E/DX2                !
 ! R4    R(2,3)                  1.4672         estimate D2E/DX2                !
 ! R5    R(2,7)                  1.0757         estimate D2E/DX2                !
 ! R6    R(3,4)                  1.3204         estimate D2E/DX2                !
 ! R7    R(3,8)                  1.0756         estimate D2E/DX2                !
 ! R8    R(4,9)                  1.0725         estimate D2E/DX2                !
 ! R9    R(4,10)                 1.0744         estimate D2E/DX2                !
 ! A1    A(2,1,5)              121.8019         estimate D2E/DX2                !
 ! A2    A(2,1,6)              121.7754         estimate D2E/DX2                !
 ! A3    A(5,1,6)              116.4227         estimate D2E/DX2                !
 ! A4    A(1,2,3)              124.0079         estimate D2E/DX2                !
 ! A5    A(1,2,7)              119.9086         estimate D2E/DX2                !
 ! A6    A(3,2,7)              116.0835         estimate D2E/DX2                !
 ! A7    A(2,3,4)              123.9405         estimate D2E/DX2                !
 ! A8    A(2,3,8)              116.1615         estimate D2E/DX2                !
 ! A9    A(4,3,8)              119.898          estimate D2E/DX2                !
 ! A10   A(3,4,9)              121.7942         estimate D2E/DX2                !
 ! A11   A(3,4,10)             121.8004         estimate D2E/DX2                !
 ! A12   A(9,4,10)             116.4054         estimate D2E/DX2                !
 ! D1    D(5,1,2,3)              0.0            estimate D2E/DX2                !
 ! D2    D(5,1,2,7)            180.0            estimate D2E/DX2                !
 ! D3    D(6,1,2,3)            180.0            estimate D2E/DX2                !
 ! D4    D(6,1,2,7)              0.0            estimate D2E/DX2                !
 ! D5    D(1,2,3,4)            180.0            estimate D2E/DX2                !
 ! D6    D(1,2,3,8)              0.0            estimate D2E/DX2                !
 ! D7    D(7,2,3,4)              0.0            estimate D2E/DX2                !
 ! D8    D(7,2,3,8)            180.0            estimate D2E/DX2                !
 ! D9    D(2,3,4,9)            180.0            estimate D2E/DX2                !
 ! D10   D(2,3,4,10)             0.0            estimate D2E/DX2                !
 ! D11   D(8,3,4,9)              0.0            estimate D2E/DX2                !
 ! D12   D(8,3,4,10)           180.0            estimate D2E/DX2                !
 --------------------------------------------------------------------------------
 Trust Radius=3.00D-01 FncErr=1.00D-07 GrdErr=1.00D-07
 Number of steps in this run=     43 maximum allowed number of steps=    100.
 GradGradGradGradGradGradGradGradGradGradGradGradGradGradGradGradGradGrad

                          Input orientation:                          
 ---------------------------------------------------------------------
 Center     Atomic      Atomic             Coordinates (Angstroms)
 Number     Number       Type             X           Y           Z
 ---------------------------------------------------------------------
      1          6           0        1.094240   -1.472207    0.000000
      2          6           0        0.000000   -0.733254    0.000000
      3          6           0        0.000606    0.733918    0.000000
      4          6           0       -1.094541    1.471609    0.000000
      5          1           0        2.074479   -1.032360    0.000000
      6          1           0        1.052019   -2.543852    0.000000
      7          1           0       -0.966328   -1.205814    0.000000
      8          1           0        0.966194    1.207746    0.000000
      9          1           0       -1.053933    2.543304    0.000000
     10          1           0       -2.074260    1.030578    0.000000
 ---------------------------------------------------------------------
                    Distance matrix (angstroms):
                    1          2          3          4          5
     1  C    0.000000
     2  C    1.320383   0.000000
     3  C    2.462321   1.467173   0.000000
     4  C    3.668353   2.461594   1.320430   0.000000
     5  H    1.074399   2.095931   2.724093   4.038879   0.000000
     6  H    1.072477   2.094041   3.442273   4.553202   1.824838
     7  H    2.077716   1.075687   2.167377   2.680491   3.045749
     8  H    2.683010   2.168182   1.075580   2.077559   2.499273
     9  H    4.554007   3.441891   2.094261   1.072464   4.751035
    10  H    4.037738   2.722804   2.095967   1.074410   4.633330
                    6          7          8          9         10
     6  H    0.000000
     7  H    2.421584   0.000000
     8  H    3.752579   3.091911   0.000000
     9  H    5.505832   3.750142   2.421700   0.000000
    10  H    4.748702   2.495789   3.045611   1.824666   0.000000
 Stoichiometry    C4H6
 Framework group  CS[SG(C4H6)]
 Deg. of freedom    17
 Full point group                 CS      NOp   2
 Largest Abelian subgroup         CS      NOp   2
 Largest concise Abelian subgroup C1      NOp   1
                         Standard orientation:                         
 ---------------------------------------------------------------------
 Center     Atomic      Atomic             Coordinates (Angstroms)
 Number     Number       Type             X           Y           Z
 ---------------------------------------------------------------------
      1          6           0       -1.094240    1.472207    0.000000
      2          6           0        0.000000    0.733254    0.000000
      3          6           0       -0.000606   -0.733918    0.000000
      4          6           0        1.094541   -1.471609    0.000000
      5          1           0       -2.074479    1.032360    0.000000
      6          1           0       -1.052019    2.543852    0.000000
      7          1           0        0.966328    1.205814    0.000000
      8          1           0       -0.966194   -1.207746    0.000000
      9          1           0        1.053933   -2.543304    0.000000
     10          1           0        2.074260   -1.030578    0.000000
 ---------------------------------------------------------------------
 Rotational constants (GHZ):     42.8062050      4.4818519      4.0570724
 Standard basis: 3-21G (6D, 7F)
 AO basis set (Overlap normalization):
 Atom C1       Shell     1 S   3     bf    1 -     1         -2.067813828528          2.782067738871          0.000000000000
      0.1722560000D+03  0.6176690738D-01
      0.2591090000D+02  0.3587940429D+00
      0.5533350000D+01  0.7007130837D+00
 Atom C1       Shell     2 SP   2    bf    2 -     5         -2.067813828528          2.782067738871          0.000000000000
      0.3664980000D+01 -0.3958951621D+00  0.2364599466D+00
      0.7705450000D+00  0.1215834356D+01  0.8606188057D+00
 Atom C1       Shell     3 SP   1    bf    6 -     9         -2.067813828528          2.782067738871          0.000000000000
      0.1958570000D+00  0.1000000000D+01  0.1000000000D+01
 Atom C2       Shell     4 S   3     bf   10 -    10          0.000000000000          1.385650020001          0.000000000000
      0.1722560000D+03  0.6176690738D-01
      0.2591090000D+02  0.3587940429D+00
      0.5533350000D+01  0.7007130837D+00
 Atom C2       Shell     5 SP   2    bf   11 -    14          0.000000000000          1.385650020001          0.000000000000
      0.3664980000D+01 -0.3958951621D+00  0.2364599466D+00
      0.7705450000D+00  0.1215834356D+01  0.8606188057D+00
 Atom C2       Shell     6 SP   1    bf   15 -    18          0.000000000000          1.385650020001          0.000000000000
      0.1958570000D+00  0.1000000000D+01  0.1000000000D+01
 Atom C3       Shell     7 S   3     bf   19 -    19         -0.001145572139         -1.386904591542          0.000000000000
      0.1722560000D+03  0.6176690738D-01
      0.2591090000D+02  0.3587940429D+00
      0.5533350000D+01  0.7007130837D+00
 Atom C3       Shell     8 SP   2    bf   20 -    23         -0.001145572139         -1.386904591542          0.000000000000
      0.3664980000D+01 -0.3958951621D+00  0.2364599466D+00
      0.7705450000D+00  0.1215834356D+01  0.8606188057D+00
 Atom C3       Shell     9 SP   1    bf   24 -    27         -0.001145572139         -1.386904591542          0.000000000000
      0.1958570000D+00  0.1000000000D+01  0.1000000000D+01
 Atom C4       Shell    10 S   3     bf   28 -    28          2.068383088369         -2.780938458691          0.000000000000
      0.1722560000D+03  0.6176690738D-01
      0.2591090000D+02  0.3587940429D+00
      0.5533350000D+01  0.7007130837D+00
 Atom C4       Shell    11 SP   2    bf   29 -    32          2.068383088369         -2.780938458691          0.000000000000
      0.3664980000D+01 -0.3958951621D+00  0.2364599466D+00
      0.7705450000D+00  0.1215834356D+01  0.8606188057D+00
 Atom C4       Shell    12 SP   1    bf   33 -    36          2.068383088369         -2.780938458691          0.000000000000
      0.1958570000D+00  0.1000000000D+01  0.1000000000D+01
 Atom H5       Shell    13 S   2     bf   37 -    37         -3.920196346686          1.950876840219          0.000000000000
      0.5447178000D+01  0.1562849787D+00
      0.8245472400D+00  0.9046908767D+00
 Atom H5       Shell    14 S   1     bf   38 -    38         -3.920196346686          1.950876840219          0.000000000000
      0.1831915800D+00  0.1000000000D+01
 Atom H6       Shell    15 S   2     bf   39 -    39         -1.988027700551          4.807183565073          0.000000000000
      0.5447178000D+01  0.1562849787D+00
      0.8245472400D+00  0.9046908767D+00
 Atom H6       Shell    16 S   1     bf   40 -    40         -1.988027700551          4.807183565073          0.000000000000
      0.1831915800D+00  0.1000000000D+01
 Atom H7       Shell    17 S   2     bf   41 -    41          1.826094708027          2.278658452506          0.000000000000
      0.5447178000D+01  0.1562849787D+00
      0.8245472400D+00  0.9046908767D+00
 Atom H7       Shell    18 S   1     bf   42 -    42          1.826094708027          2.278658452506          0.000000000000
      0.1831915800D+00  0.1000000000D+01
 Atom H8       Shell    19 S   2     bf   43 -    43         -1.825841580473         -2.282308913326          0.000000000000
      0.5447178000D+01  0.1562849787D+00
      0.8245472400D+00  0.9046908767D+00
 Atom H8       Shell    20 S   1     bf   44 -    44         -1.825841580473         -2.282308913326          0.000000000000
      0.1831915800D+00  0.1000000000D+01
 Atom H9       Shell    21 S   2     bf   45 -    45          1.991645315411         -4.806148090900          0.000000000000
      0.5447178000D+01  0.1562849787D+00
      0.8245472400D+00  0.9046908767D+00
 Atom H9       Shell    22 S   1     bf   46 -    46          1.991645315411         -4.806148090900          0.000000000000
      0.1831915800D+00  0.1000000000D+01
 Atom H10      Shell    23 S   2     bf   47 -    47          3.919783478062         -1.947510105400          0.000000000000
      0.5447178000D+01  0.1562849787D+00
      0.8245472400D+00  0.9046908767D+00
 Atom H10      Shell    24 S   1     bf   48 -    48          3.919783478062         -1.947510105400          0.000000000000
      0.1831915800D+00  0.1000000000D+01
 There are    40 symmetry adapted cartesian basis functions of A'  symmetry.
 There are     8 symmetry adapted cartesian basis functions of A"  symmetry.
 There are    40 symmetry adapted basis functions of A'  symmetry.
 There are     8 symmetry adapted basis functions of A"  symmetry.
    48 basis functions,    78 primitive gaussians,    48 cartesian basis functions
    15 alpha electrons       15 beta electrons
       nuclear repulsion energy       104.4775996549 Hartrees.
 NAtoms=   10 NActive=   10 NUniq=   10 SFac= 1.00D+00 NAtFMM=   60 NAOKFM=F Big=F
 Integral buffers will be    131072 words long.
 Raffenetti 1 integral format.
 Two-electron integral symmetry is turned on.
 One-electron integrals computed using PRISM.
 NBasis=    48 RedAO= T EigKep=  1.20D-02  NBF=    40     8
 NBsUse=    48 1.00D-06 EigRej= -1.00D+00 NBFU=    40     8
 ExpMin= 1.83D-01 ExpMax= 1.72D+02 ExpMxC= 1.72D+02 IAcc=1 IRadAn=         1 AccDes= 0.00D+00
 Harris functional with IExCor=  205 and IRadAn=       1 diagonalized for initial guess.
 HarFok:  IExCor=  205 AccDes= 0.00D+00 IRadAn=         1 IDoV= 1 UseB2=F ITyADJ=14
 ICtDFT=  3500011 ScaDFX=  1.000000  1.000000  1.000000  1.000000
 FoFCou: FMM=F IPFlag=           0 FMFlag=      100000 FMFlg1=           0
         NFxFlg=           0 DoJE=T BraDBF=F KetDBF=T FulRan=T
         wScrn=  0.000000 ICntrl=     500 IOpCl=  0 I1Cent=   200000004 NGrid=           0
         NMat0=    1 NMatS0=      1 NMatT0=    0 NMatD0=    1 NMtDS0=    0 NMtDT0=    0
 Petite list used in FoFCou.
 Initial guess orbital symmetries:
       Occupied  (A') (A') (A') (A') (A') (A') (A') (A') (A') (A')
                 (A') (A') (A') (A") (A")
       Virtual   (A") (A") (A') (A') (A') (A') (A') (A') (A') (A')
                 (A') (A') (A') (A") (A") (A') (A') (A") (A") (A')
                 (A') (A') (A') (A') (A') (A') (A') (A') (A') (A')
                 (A') (A') (A')
 The electronic state of the initial guess is 1-A'.
 Keep R1 ints in memory in symmetry-blocked form, NReq=1537195.
 Requested convergence on RMS density matrix=1.00D-08 within 128 cycles.
 Requested convergence on MAX density matrix=1.00D-06.
 Requested convergence on             energy=1.00D-06.
 No special actions if energy rises.
 SCF Done:  E(RHF) =  -154.059456401     A.U. after    9 cycles
            NFock=  9  Conv=0.87D-08     -V/T= 2.0020

 **********************************************************************

            Population analysis using the SCF density.

 **********************************************************************

 Orbital symmetries:
       Occupied  (A') (A') (A') (A') (A') (A') (A') (A') (A') (A')
                 (A') (A') (A') (A") (A")
       Virtual   (A") (A") (A') (A') (A') (A') (A') (A') (A') (A')
                 (A') (A') (A') (A") (A') (A") (A") (A') (A') (A")
                 (A') (A') (A') (A') (A') (A') (A') (A') (A') (A')
                 (A') (A') (A')
 The electronic state is 1-A'.
 Alpha  occ. eigenvalues --  -11.17856 -11.17814 -11.16644 -11.16632  -1.09337
 Alpha  occ. eigenvalues --   -1.00729  -0.82190  -0.75579  -0.64966  -0.64024
 Alpha  occ. eigenvalues --   -0.56178  -0.54250  -0.48462  -0.44794  -0.32514
 Alpha virt. eigenvalues --    0.13181   0.27056   0.28639   0.29998   0.30881
 Alpha virt. eigenvalues --    0.35793   0.37568   0.40573   0.55872   0.56143
 Alpha virt. eigenvalues --    0.61074   0.82960   0.90262   0.96962   0.99782
 Alpha virt. eigenvalues --    1.01829   1.10880   1.10917   1.11336   1.11503
 Alpha virt. eigenvalues --    1.12980   1.31580   1.32299   1.37725   1.38070
 Alpha virt. eigenvalues --    1.44388   1.54374   1.59009   1.63007   1.77479
 Alpha virt. eigenvalues --    1.80116   1.97258   2.18608
     Molecular Orbital Coefficients:
                           1         2         3         4         5
                           O         O         O         O         O
     Eigenvalues --   -11.17856 -11.17814 -11.16644 -11.16632  -1.09337
   1 1   C  1S         -0.00899  -0.00134  -0.61607   0.77080  -0.09605
   2        2S          0.00164  -0.00355  -0.06094   0.07510   0.10854
   3        2PX         0.00094  -0.00133  -0.00016   0.00018   0.05974
   4        2PY        -0.00069   0.00120   0.00032  -0.00003  -0.04967
   5        2PZ         0.00000   0.00000   0.00000   0.00000   0.00000
   6        3S         -0.01805   0.02491   0.04795  -0.05299   0.17517
   7        3PX        -0.00455   0.00921   0.00594  -0.00452   0.00124
   8        3PY         0.00978  -0.00918  -0.00573   0.00201   0.00697
   9        3PZ         0.00000   0.00000   0.00000   0.00000   0.00000
  10 2   C  1S         -0.69639   0.69953   0.00942  -0.00005  -0.14084
  11        2S         -0.07136   0.06815   0.00321  -0.00337   0.15446
  12        2PX         0.00069  -0.00087  -0.00194   0.00143  -0.04275
  13        2PY         0.00081   0.00040   0.00145  -0.00076  -0.01994
  14        2PZ         0.00000   0.00000   0.00000   0.00000   0.00000
  15        3S          0.07270  -0.04444  -0.01953   0.01905   0.29765
  16        3PX        -0.00647   0.01397   0.01004  -0.00774  -0.03000
  17        3PY        -0.01516  -0.00725  -0.00664   0.00570  -0.00294
  18        3PZ         0.00000   0.00000   0.00000   0.00000   0.00000
  19 3   C  1S          0.69981   0.69611  -0.00919   0.00200  -0.14087
  20        2S          0.07169   0.06781  -0.00387  -0.00257   0.15448
  21        2PX         0.00069   0.00087  -0.00221  -0.00097   0.04289
  22        2PY         0.00081  -0.00040   0.00158   0.00042   0.01994
  23        2PZ         0.00000   0.00000   0.00000   0.00000   0.00000
  24        3S         -0.07292  -0.04412   0.02323   0.01425   0.29786
  25        3PX        -0.00657  -0.01396   0.01148   0.00534   0.03014
  26        3PY        -0.01513   0.00730  -0.00771  -0.00410   0.00302
  27        3PZ         0.00000   0.00000   0.00000   0.00000   0.00000
  28 4   C  1S          0.00901  -0.00140   0.77088   0.61597  -0.09613
  29        2S         -0.00165  -0.00354   0.07600   0.05982   0.10863
  30        2PX         0.00095   0.00133  -0.00020  -0.00014  -0.05982
  31        2PY        -0.00069  -0.00119   0.00032  -0.00004   0.04965
  32        2PZ         0.00000   0.00000   0.00000   0.00000   0.00000
  33        3S          0.01818   0.02483  -0.05843  -0.04111   0.17527
  34        3PX        -0.00462  -0.00919   0.00678   0.00310  -0.00121
  35        3PY         0.00982   0.00913  -0.00602  -0.00069  -0.00699
  36        3PZ         0.00000   0.00000   0.00000   0.00000   0.00000
  37 5   H  1S          0.00137  -0.00104   0.00051  -0.00136   0.04364
  38        2S          0.00148  -0.00086  -0.00764   0.00985   0.00369
  39 6   H  1S          0.00011  -0.00068   0.00096  -0.00112   0.03842
  40        2S         -0.00176   0.00191  -0.00679   0.01039  -0.00710
  41 7   H  1S          0.00042  -0.00225   0.00045  -0.00092   0.06445
  42        2S         -0.00675   0.00563  -0.00101   0.00026   0.00961
  43 8   H  1S         -0.00044  -0.00226  -0.00065  -0.00079   0.06444
  44        2S          0.00677   0.00559   0.00104   0.00003   0.00964
  45 9   H  1S         -0.00011  -0.00068  -0.00118  -0.00088   0.03844
  46        2S          0.00177   0.00190   0.00891   0.00863  -0.00711
  47 10  H  1S         -0.00137  -0.00104  -0.00080  -0.00121   0.04369
  48        2S         -0.00148  -0.00086   0.00962   0.00792   0.00372
                           6         7         8         9        10
                           O         O         O         O         O
     Eigenvalues --    -1.00729  -0.82190  -0.75579  -0.64966  -0.64024
   1 1   C  1S         -0.13472  -0.11430  -0.05234  -0.02343  -0.00848
   2        2S          0.14569   0.11818   0.05215   0.01630   0.00674
   3        2PX         0.06411  -0.04638  -0.13051  -0.12690  -0.19092
   4        2PY        -0.03759   0.06166  -0.00230   0.22401  -0.11887
   5        2PZ         0.00000   0.00000   0.00000   0.00000   0.00000
   6        3S          0.31794   0.35679   0.18347   0.12208   0.03575
   7        3PX         0.01819  -0.01864  -0.06462  -0.06435  -0.12997
   8        3PY        -0.00538   0.02276  -0.01299   0.13515  -0.08496
   9        3PZ         0.00000   0.00000   0.00000   0.00000   0.00000
  10 2   C  1S         -0.09299   0.07789   0.08831   0.03529   0.00923
  11        2S          0.10011  -0.08075  -0.09085  -0.03936  -0.00899
  12        2PX        -0.09027  -0.07719  -0.12895   0.19822  -0.04561
  13        2PY         0.09617   0.13703  -0.08902  -0.03073  -0.21500
  14        2PZ         0.00000   0.00000   0.00000   0.00000   0.00000
  15        3S          0.22696  -0.24468  -0.30646  -0.11975  -0.03415
  16        3PX        -0.01709  -0.02177  -0.07972   0.12488  -0.05281
  17        3PY         0.00000   0.05119  -0.04300   0.00959  -0.13075
  18        3PZ         0.00000   0.00000   0.00000   0.00000   0.00000
  19 3   C  1S          0.09293   0.07788  -0.08836  -0.03516   0.00932
  20        2S         -0.10004  -0.08074   0.09091   0.03922  -0.00910
  21        2PX        -0.09026   0.07722  -0.12890   0.19842   0.04456
  22        2PY         0.09603  -0.13697  -0.08938  -0.02965   0.21507
  23        2PZ         0.00000   0.00000   0.00000   0.00000   0.00000
  24        3S         -0.22687  -0.24464   0.30670   0.11926  -0.03438
  25        3PX        -0.01714   0.02171  -0.07967   0.12508   0.05217
  26        3PY        -0.00001  -0.05117  -0.04324   0.01027   0.13078
  27        3PZ         0.00000   0.00000   0.00000   0.00000   0.00000
  28 4   C  1S          0.13463  -0.11437   0.05231   0.02335  -0.00854
  29        2S         -0.14558   0.11825  -0.05211  -0.01624   0.00678
  30        2PX         0.06410   0.04650  -0.13067  -0.12629   0.19098
  31        2PY        -0.03748  -0.06170  -0.00253   0.22429   0.11799
  32        2PZ         0.00000   0.00000   0.00000   0.00000   0.00000
  33        3S         -0.31769   0.35707  -0.18344  -0.12173   0.03610
  34        3PX         0.01816   0.01868  -0.06467  -0.06397   0.12992
  35        3PY        -0.00536  -0.02278  -0.01315   0.13544   0.08436
  36        3PZ         0.00000   0.00000   0.00000   0.00000   0.00000
  37 5   H  1S          0.06602   0.09362   0.10833   0.03384   0.14644
  38        2S          0.00886   0.03590   0.06586   0.02591   0.10747
  39 6   H  1S          0.06857   0.11498   0.03948   0.15704  -0.07097
  40        2S          0.00841   0.05265   0.02144   0.11930  -0.05290
  41 7   H  1S          0.04084  -0.06250  -0.15645   0.06914  -0.08894
  42        2S          0.00313  -0.02331  -0.08466   0.05178  -0.05686
  43 8   H  1S         -0.04087  -0.06246   0.15657  -0.06954  -0.08861
  44        2S         -0.00317  -0.02333   0.08470  -0.05202  -0.05657
  45 9   H  1S         -0.06853   0.11509  -0.03943  -0.15728  -0.07020
  46        2S         -0.00842   0.05270  -0.02142  -0.11945  -0.05233
  47 10  H  1S         -0.06598   0.09367  -0.10841  -0.03315   0.14631
  48        2S         -0.00884   0.03591  -0.06594  -0.02540   0.10739
                          11        12        13        14        15
                           O         O         O         O         O
     Eigenvalues --    -0.56178  -0.54250  -0.48462  -0.44794  -0.32514
   1 1   C  1S         -0.01966  -0.00467  -0.00227   0.00000   0.00000
   2        2S          0.03097   0.00871   0.00466   0.00000   0.00000
   3        2PX         0.17771   0.19912   0.08132   0.00000   0.00000
   4        2PY        -0.19876   0.14727   0.13772   0.00000   0.00000
   5        2PZ         0.00000   0.00000   0.00000   0.19146   0.26188
   6        3S         -0.00454   0.00316  -0.02360   0.00000   0.00000
   7        3PX         0.08854   0.17194   0.07463   0.00000   0.00000
   8        3PY        -0.12304   0.15576   0.17684   0.00000   0.00000
   9        3PZ         0.00000   0.00000   0.00000   0.20363   0.32724
  10 2   C  1S          0.00031   0.02199  -0.01754   0.00000   0.00000
  11        2S          0.00705  -0.01992   0.01927   0.00000   0.00000
  12        2PX        -0.23671  -0.13540  -0.10986   0.00000   0.00000
  13        2PY         0.12921   0.01425  -0.23267   0.00000   0.00000
  14        2PZ         0.00000   0.00000   0.00000   0.25383   0.20080
  15        3S         -0.01920  -0.08095   0.05610   0.00000   0.00000
  16        3PX        -0.20129  -0.11818  -0.16955   0.00000   0.00000
  17        3PY         0.08309  -0.04428  -0.19225   0.00000   0.00000
  18        3PZ         0.00000   0.00000   0.00000   0.26152   0.25194
  19 3   C  1S          0.00037  -0.02196  -0.01758   0.00000   0.00000
  20        2S          0.00697   0.01993   0.01929   0.00000   0.00000
  21        2PX         0.23732  -0.13471   0.10953   0.00000   0.00000
  22        2PY        -0.12907   0.01364   0.23278   0.00000   0.00000
  23        2PZ         0.00000   0.00000   0.00000   0.25383  -0.20079
  24        3S         -0.01928   0.08083   0.05648   0.00000   0.00000
  25        3PX         0.20173  -0.11758   0.16929   0.00000   0.00000
  26        3PY        -0.08263  -0.04475   0.19246   0.00000   0.00000
  27        3PZ         0.00000   0.00000   0.00000   0.26150  -0.25196
  28 4   C  1S         -0.01972   0.00458  -0.00229   0.00000   0.00000
  29        2S          0.03104  -0.00860   0.00467   0.00000   0.00000
  30        2PX        -0.17864   0.19866  -0.08093   0.00000   0.00000
  31        2PY         0.19813   0.14848  -0.13760   0.00000   0.00000
  32        2PZ         0.00000   0.00000   0.00000   0.19147  -0.26184
  33        3S         -0.00433  -0.00306  -0.02360   0.00000   0.00000
  34        3PX        -0.08932   0.17171  -0.07414   0.00000   0.00000
  35        3PY         0.12251   0.15668  -0.17676   0.00000   0.00000
  36        3PZ         0.00000   0.00000   0.00000   0.20368  -0.32719
  37 5   H  1S         -0.03820  -0.17082  -0.11241   0.00000   0.00000
  38        2S         -0.05038  -0.13960  -0.11178   0.00000   0.00000
  39 6   H  1S         -0.11332   0.12130   0.12168   0.00000   0.00000
  40        2S         -0.10835   0.09263   0.10000   0.00000   0.00000
  41 7   H  1S         -0.11048  -0.10517  -0.14994   0.00000   0.00000
  42        2S         -0.08986  -0.07277  -0.13613   0.00000   0.00000
  43 8   H  1S         -0.11082   0.10488  -0.14979   0.00000   0.00000
  44        2S         -0.09007   0.07252  -0.13592   0.00000   0.00000
  45 9   H  1S         -0.11297  -0.12189   0.12151   0.00000   0.00000
  46        2S         -0.10808  -0.09319   0.09984   0.00000   0.00000
  47 10  H  1S         -0.03873   0.17101  -0.11220   0.00000   0.00000
  48        2S         -0.05078   0.13970  -0.11166   0.00000   0.00000
                          16        17        18        19        20
                           V         V         V         V         V
     Eigenvalues --     0.13181   0.27056   0.28639   0.29998   0.30881
   1 1   C  1S          0.00000   0.00000  -0.01887   0.05529  -0.10378
   2        2S          0.00000   0.00000   0.00699  -0.01704   0.04434
   3        2PX         0.00000   0.00000  -0.11111   0.07991  -0.05111
   4        2PY         0.00000   0.00000  -0.09585  -0.10854   0.06624
   5        2PZ         0.25372  -0.15678   0.00000   0.00000   0.00000
   6        3S          0.00000   0.00000   0.23459  -0.77816   1.47633
   7        3PX         0.00000   0.00000  -0.42303   0.45613  -0.23344
   8        3PY         0.00000   0.00000  -0.28093  -0.43528   0.40183
   9        3PZ         0.54419  -0.54529   0.00000   0.00000   0.00000
  10 2   C  1S          0.00000   0.00000   0.03233   0.05050  -0.01184
  11        2S          0.00000   0.00000  -0.01534  -0.01133  -0.01184
  12        2PX         0.00000   0.00000  -0.12178  -0.11359   0.04408
  13        2PY         0.00000   0.00000  -0.09755  -0.04889  -0.00661
  14        2PZ        -0.19027   0.27673   0.00000   0.00000   0.00000
  15        3S          0.00000   0.00000  -0.37169  -0.91929   0.43094
  16        3PX         0.00000   0.00000  -0.43490  -0.39806   0.22251
  17        3PY         0.00000   0.00000  -0.32177  -0.30471  -0.40325
  18        3PZ        -0.39532   0.77963   0.00000   0.00000   0.00000
  19 3   C  1S          0.00000   0.00000  -0.03189   0.05084   0.01191
  20        2S          0.00000   0.00000   0.01524  -0.01153   0.01186
  21        2PX         0.00000   0.00000  -0.12066   0.11465   0.04427
  22        2PY         0.00000   0.00000  -0.09717   0.04976  -0.00638
  23        2PZ        -0.19032  -0.27669   0.00000   0.00000   0.00000
  24        3S          0.00000   0.00000   0.36417  -0.92310  -0.43172
  25        3PX         0.00000   0.00000  -0.43090   0.40134   0.22394
  26        3PY         0.00000   0.00000  -0.31961   0.30893  -0.40284
  27        3PZ        -0.39549  -0.77952   0.00000   0.00000   0.00000
  28 4   C  1S          0.00000   0.00000   0.01940   0.05507   0.10370
  29        2S          0.00000   0.00000  -0.00716  -0.01697  -0.04426
  30        2PX         0.00000   0.00000  -0.11186  -0.07908  -0.05105
  31        2PY         0.00000   0.00000  -0.09526   0.10934   0.06635
  32        2PZ         0.25381   0.15665   0.00000   0.00000   0.00000
  33        3S          0.00000   0.00000  -0.24199  -0.77492  -1.47572
  34        3PX         0.00000   0.00000  -0.42719  -0.45343  -0.23308
  35        3PY         0.00000   0.00000  -0.27850   0.43716   0.40175
  36        3PZ         0.54440   0.54503   0.00000   0.00000   0.00000
  37 5   H  1S          0.00000   0.00000  -0.02368  -0.01613  -0.01718
  38        2S          0.00000   0.00000  -0.82963   0.49063  -0.74476
  39 6   H  1S          0.00000   0.00000   0.01871   0.03771  -0.02211
  40        2S          0.00000   0.00000   0.36186   0.92431  -1.07961
  41 7   H  1S          0.00000   0.00000   0.04753  -0.01604  -0.03327
  42        2S          0.00000   0.00000   1.01236   0.86483  -0.26768
  43 8   H  1S          0.00000   0.00000  -0.04768  -0.01571   0.03337
  44        2S          0.00000   0.00000  -1.00499   0.87471   0.26903
  45 9   H  1S          0.00000   0.00000  -0.01833   0.03779   0.02212
  46        2S          0.00000   0.00000  -0.35442   0.92711   1.07982
  47 10  H  1S          0.00000   0.00000   0.02352  -0.01628   0.01712
  48        2S          0.00000   0.00000   0.83492   0.48296   0.74305
                          21        22        23        24        25
                           V         V         V         V         V
     Eigenvalues --     0.35793   0.37568   0.40573   0.55872   0.56143
   1 1   C  1S          0.07273   0.01890   0.04959  -0.06855  -0.06251
   2        2S         -0.02414  -0.01161  -0.01622   0.00812  -0.05404
   3        2PX         0.13380  -0.06944  -0.06608  -0.04564   0.02767
   4        2PY         0.08567  -0.11147  -0.16439  -0.10328   0.06110
   5        2PZ         0.00000   0.00000   0.00000   0.00000   0.00000
   6        3S         -1.04490  -0.12090  -0.65350   1.13239   2.44187
   7        3PX         0.53172  -0.42185  -0.56150   0.48296   1.66131
   8        3PY         0.50912  -0.66011  -0.85859  -1.41617  -1.28485
   9        3PZ         0.00000   0.00000   0.00000   0.00000   0.00000
  10 2   C  1S         -0.04586  -0.10225  -0.04893   0.12303   0.05883
  11        2S          0.02356   0.04990   0.00552  -0.01282  -0.00530
  12        2PX         0.03339   0.08891   0.06619   0.16947   0.16914
  13        2PY         0.03822  -0.08629   0.11177   0.09518  -0.00280
  14        2PZ         0.00000   0.00000   0.00000   0.00000   0.00000
  15        3S          0.57071   1.26430   1.00704  -2.69191  -2.06274
  16        3PX         0.03469   0.50611   0.64830   0.98732   2.45742
  17        3PY         0.12483  -0.20503   0.57370   1.17298  -0.83283
  18        3PZ         0.00000   0.00000   0.00000   0.00000   0.00000
  19 3   C  1S         -0.04644   0.10198  -0.04877  -0.12385   0.05719
  20        2S          0.02389  -0.04975   0.00549   0.01293  -0.00498
  21        2PX        -0.03366   0.08893  -0.06593   0.17179  -0.16643
  22        2PY        -0.03765  -0.08620  -0.11215   0.09546   0.00407
  23        2PZ         0.00000   0.00000   0.00000   0.00000   0.00000
  24        3S          0.57742  -1.26118   1.00458   2.71999  -2.02785
  25        3PX        -0.03673   0.50828  -0.64636   1.02298  -2.44320
  26        3PY        -0.12499  -0.20462  -0.57699   1.16261   0.84411
  27        3PZ         0.00000   0.00000   0.00000   0.00000   0.00000
  28 4   C  1S          0.07300  -0.01849   0.04963   0.06941  -0.06145
  29        2S         -0.02427   0.01149  -0.01624  -0.00726  -0.05411
  30        2PX        -0.13319  -0.07012   0.06575  -0.04519  -0.02842
  31        2PY        -0.08492  -0.11249   0.16410  -0.10236  -0.06252
  32        2PZ         0.00000   0.00000   0.00000   0.00000   0.00000
  33        3S         -1.04828   0.11433  -0.65487  -1.16777   2.42362
  34        3PX        -0.52789  -0.42434   0.56009   0.50805  -1.65591
  35        3PY        -0.50473  -0.66649   0.85758  -1.43419   1.26159
  36        3PZ         0.00000   0.00000   0.00000   0.00000   0.00000
  37 5   H  1S          0.04528  -0.03236   0.03949   0.11589   0.02337
  38        2S          1.37798  -0.66006  -0.52639  -0.60225   0.19890
  39 6   H  1S         -0.01540   0.03466  -0.02325  -0.04673   0.10162
  40        2S         -0.16261   0.91312   1.27437   0.74235   0.21265
  41 7   H  1S         -0.05481  -0.00053   0.02462  -0.01656   0.01645
  42        2S         -0.54695  -0.96751  -1.12334  -0.47203  -1.03384
  43 8   H  1S         -0.05469   0.00019   0.02472   0.01622   0.01656
  44        2S         -0.55169   0.96641  -1.12246   0.48830  -1.02587
  45 9   H  1S         -0.01522  -0.03482  -0.02333   0.04531   0.10216
  46        2S         -0.15470  -0.91706   1.27247  -0.74566   0.20184
  47 10  H  1S          0.04514   0.03263   0.03952  -0.11610   0.02185
  48        2S          1.37411   0.66983  -0.52434   0.59994   0.20868
                          26        27        28        29        30
                           V         V         V         V         V
     Eigenvalues --     0.61074   0.82960   0.90262   0.96962   0.99782
   1 1   C  1S          0.04237   0.00678  -0.00984   0.00000   0.01918
   2        2S         -0.02902   0.11350  -0.02788   0.00000  -0.10372
   3        2PX        -0.15223   0.26285  -0.37134   0.00000  -0.34689
   4        2PY         0.07540  -0.37698  -0.08556   0.00000  -0.01452
   5        2PZ         0.00000   0.00000   0.00000   0.51686   0.00000
   6        3S         -1.29698  -0.04719  -0.33892   0.00000  -0.23353
   7        3PX        -1.71384  -0.48892   0.62822   0.00000   0.33215
   8        3PY         0.19365   0.54605   0.16784   0.00000   0.31965
   9        3PZ         0.00000   0.00000   0.00000  -0.39126   0.00000
  10 2   C  1S         -0.00197   0.03023  -0.00687   0.00000  -0.07159
  11        2S          0.00255  -0.00258  -0.04142   0.00000  -0.00601
  12        2PX        -0.00405  -0.29216   0.11529   0.00000  -0.12041
  13        2PY         0.20677   0.28405  -0.41285   0.00000  -0.38990
  14        2PZ         0.00000   0.00000   0.00000   0.55922   0.00000
  15        3S          0.23819   0.48096   0.08116   0.00000   0.19410
  16        3PX        -0.67415   0.30957  -0.35805   0.00000   0.03018
  17        3PY         2.55974  -0.19737   0.46894   0.00000   0.51050
  18        3PZ         0.00000   0.00000   0.00000  -0.35900   0.00000
  19 3   C  1S          0.00191  -0.03017  -0.00678   0.00000   0.07161
  20        2S         -0.00263   0.00300  -0.04144   0.00000   0.00638
  21        2PX        -0.00439  -0.29265  -0.11550   0.00000  -0.11965
  22        2PY         0.20626   0.28490   0.41239   0.00000  -0.38977
  23        2PZ         0.00000   0.00000   0.00000   0.55909   0.00000
  24        3S         -0.23599  -0.48274   0.08180   0.00000  -0.19514
  25        3PX        -0.67576   0.30882   0.35723   0.00000   0.02850
  26        3PY         2.55826  -0.19727  -0.46709   0.00000   0.51064
  27        3PZ         0.00000   0.00000   0.00000  -0.35890   0.00000
  28 4   C  1S         -0.04235  -0.00683  -0.00989   0.00000  -0.01915
  29        2S          0.02906  -0.11334  -0.02770   0.00000   0.10391
  30        2PX        -0.15250   0.26328   0.37079   0.00000  -0.34708
  31        2PY         0.07542  -0.37622   0.08677   0.00000  -0.01512
  32        2PZ         0.00000   0.00000   0.00000   0.51702   0.00000
  33        3S          1.29487   0.04782  -0.33775   0.00000   0.23400
  34        3PX        -1.71287  -0.49140  -0.62815   0.00000   0.33105
  35        3PY         0.19196   0.54567  -0.16895   0.00000   0.32090
  36        3PZ         0.00000   0.00000   0.00000  -0.39136   0.00000
  37 5   H  1S         -0.02906   0.09042   0.33798   0.00000   0.22728
  38        2S         -0.94640  -0.12448   0.09261   0.00000   0.09413
  39 6   H  1S         -0.08176  -0.23560  -0.20137   0.00000  -0.20979
  40        2S          0.08819   0.06009   0.07373   0.00000  -0.05731
  41 7   H  1S          0.04550  -0.21509  -0.18152   0.00000  -0.48904
  42        2S         -0.54674  -0.02145   0.16913   0.00000   0.07123
  43 8   H  1S         -0.04583   0.21509  -0.18148   0.00000   0.48960
  44        2S          0.54601   0.02101   0.16830   0.00000  -0.07210
  45 9   H  1S          0.08145   0.23554  -0.20188   0.00000   0.21054
  46        2S         -0.08687  -0.05989   0.07429   0.00000   0.05709
  47 10  H  1S          0.02911  -0.08993   0.33819   0.00000  -0.22695
  48        2S          0.94647   0.12511   0.09240   0.00000  -0.09393
                          31        32        33        34        35
                           V         V         V         V         V
     Eigenvalues --     1.01829   1.10880   1.10917   1.11336   1.11503
   1 1   C  1S          0.00000   0.00000  -0.06202  -0.06867   0.00000
   2        2S          0.00000   0.00000  -0.17766   0.02403   0.00000
   3        2PX         0.00000   0.00000   0.19330   0.41437   0.00000
   4        2PY         0.00000   0.00000  -0.12200  -0.34262   0.00000
   5        2PZ         0.76815  -0.13564   0.00000   0.00000  -0.58524
   6        3S          0.00000   0.00000   0.38693   0.60328   0.00000
   7        3PX         0.00000   0.00000  -0.33041  -0.14489   0.00000
   8        3PY         0.00000   0.00000   0.17223   0.29401   0.00000
   9        3PZ        -0.69444   0.38429   0.00000   0.00000   0.70476
  10 2   C  1S          0.00000   0.00000   0.02691   0.05839   0.00000
  11        2S          0.00000   0.00000  -0.13594   0.08739   0.00000
  12        2PX         0.00000   0.00000   0.27941   0.22088   0.00000
  13        2PY         0.00000   0.00000  -0.30365  -0.37509   0.00000
  14        2PZ         0.11168   0.77667   0.00000   0.00000   0.54744
  15        3S          0.00000   0.00000  -0.09791  -0.29202   0.00000
  16        3PX         0.00000   0.00000  -0.15276   0.24282   0.00000
  17        3PY         0.00000   0.00000   0.31886   0.03449   0.00000
  18        3PZ        -0.00001  -1.14037   0.00000   0.00000  -0.59072
  19 3   C  1S          0.00000   0.00000  -0.02824   0.05783   0.00000
  20        2S          0.00000   0.00000   0.13323   0.09049   0.00000
  21        2PX         0.00000   0.00000   0.28417  -0.21473   0.00000
  22        2PY         0.00000   0.00000  -0.31205   0.36742   0.00000
  23        2PZ        -0.11157  -0.78297   0.00000   0.00000   0.53854
  24        3S          0.00000   0.00000   0.10483  -0.28981   0.00000
  25        3PX         0.00000   0.00000  -0.14693  -0.24645   0.00000
  26        3PY         0.00000   0.00000   0.31917  -0.02767   0.00000
  27        3PZ        -0.00013   1.14705   0.00000   0.00000  -0.57752
  28 4   C  1S          0.00000   0.00000   0.06350  -0.06725   0.00000
  29        2S          0.00000   0.00000   0.17640   0.02828   0.00000
  30        2PX         0.00000   0.00000   0.20336  -0.41074   0.00000
  31        2PY         0.00000   0.00000  -0.13010   0.33938   0.00000
  32        2PZ        -0.76809   0.14220   0.00000   0.00000  -0.58362
  33        3S          0.00000   0.00000  -0.40016   0.59437   0.00000
  34        3PX         0.00000   0.00000  -0.33400   0.13852   0.00000
  35        3PY         0.00000   0.00000   0.17936  -0.29006   0.00000
  36        3PZ         0.69443  -0.39204   0.00000   0.00000   0.70028
  37 5   H  1S          0.00000   0.00000  -0.54121  -0.23850   0.00000
  38        2S          0.00000   0.00000   0.12915   0.08675   0.00000
  39 6   H  1S          0.00000   0.00000  -0.48504  -0.39261   0.00000
  40        2S          0.00000   0.00000   0.09506   0.01048   0.00000
  41 7   H  1S          0.00000   0.00000  -0.02920   0.26234   0.00000
  42        2S          0.00000   0.00000   0.05797  -0.23853   0.00000
  43 8   H  1S          0.00000   0.00000   0.02246   0.26281   0.00000
  44        2S          0.00000   0.00000  -0.05206  -0.23992   0.00000
  45 9   H  1S          0.00000   0.00000   0.49293  -0.38175   0.00000
  46        2S          0.00000   0.00000  -0.09434   0.00847   0.00000
  47 10  H  1S          0.00000   0.00000   0.54547  -0.22575   0.00000
  48        2S          0.00000   0.00000  -0.13081   0.08315   0.00000
                          36        37        38        39        40
                           V         V         V         V         V
     Eigenvalues --     1.12980   1.31580   1.32299   1.37725   1.38070
   1 1   C  1S          0.02742  -0.00213   0.00015   0.00757   0.01315
   2        2S          0.27870   0.06671   0.02948   0.07862  -0.13362
   3        2PX         0.14181  -0.26298   0.51442   0.47300   0.22503
   4        2PY        -0.16619  -0.54858   0.54393   0.06034   0.10997
   5        2PZ         0.00000   0.00000   0.00000   0.00000   0.00000
   6        3S         -0.19118  -0.60581   0.00558  -0.53856   0.01436
   7        3PX         0.13583   0.42330  -1.03850  -0.78880  -0.27449
   8        3PY         0.09943   1.16306  -1.23341   0.13936  -0.01975
   9        3PZ         0.00000   0.00000   0.00000   0.00000   0.00000
  10 2   C  1S          0.00914  -0.01408   0.00746  -0.00943  -0.03316
  11        2S          0.35676   0.14836   0.07233   0.10498   0.10310
  12        2PX        -0.23697   0.45332  -0.16969   0.48766   0.55036
  13        2PY        -0.17967   0.18010  -0.27053   0.10967   0.33099
  14        2PZ         0.00000   0.00000   0.00000   0.00000   0.00000
  15        3S         -0.32013  -0.27221  -0.65543   0.09877   0.25376
  16        3PX         0.25104  -1.48678   0.52715  -1.18967  -0.71680
  17        3PY         0.01034  -0.42268   1.30757  -0.00534  -0.78574
  18        3PZ         0.00000   0.00000   0.00000   0.00000   0.00000
  19 3   C  1S          0.00904  -0.01413  -0.00734  -0.01059   0.03284
  20        2S          0.35705   0.14772  -0.07357   0.10804  -0.09899
  21        2PX         0.23749  -0.45489  -0.16580  -0.50509   0.53262
  22        2PY         0.17951  -0.18321  -0.26908  -0.12304   0.32830
  23        2PZ         0.00000   0.00000   0.00000   0.00000   0.00000
  24        3S         -0.31972  -0.26450   0.65753   0.10896  -0.24841
  25        3PX        -0.25193   1.49199   0.51391   1.21124  -0.67280
  26        3PY        -0.00875   0.43778   1.30447   0.03714  -0.78811
  27        3PZ         0.00000   0.00000   0.00000   0.00000   0.00000
  28 4   C  1S          0.02753  -0.00216  -0.00016   0.00795  -0.01289
  29        2S          0.27927   0.06677  -0.03004   0.07438   0.13635
  30        2PX        -0.14146   0.26699   0.51098  -0.47933   0.20846
  31        2PY         0.16619   0.55403   0.53918  -0.06645   0.10751
  32        2PZ         0.00000   0.00000   0.00000   0.00000   0.00000
  33        3S         -0.19156  -0.60643  -0.00087  -0.53687  -0.03495
  34        3PX        -0.13774  -0.43134  -1.03274   0.79632  -0.24514
  35        3PY        -0.10003  -1.17532  -1.22366  -0.13460  -0.02345
  36        3PZ         0.00000   0.00000   0.00000   0.00000   0.00000
  37 5   H  1S          0.45658  -0.24550   0.36416   0.52782   0.12922
  38        2S         -0.07720   0.75454  -1.12451  -0.80985  -0.27222
  39 6   H  1S          0.43474   0.41791  -0.26202  -0.00674   0.06100
  40        2S         -0.27052  -0.89830   0.91513   0.07970   0.00432
  41 7   H  1S          0.41663  -0.04272   0.04034  -0.42068  -0.66073
  42        2S         -0.24372   0.85541  -0.47403   1.02261   1.16538
  43 8   H  1S          0.41584  -0.04292  -0.03968  -0.44304   0.64656
  44        2S         -0.24361   0.86042   0.46675   1.06119  -1.12959
  45 9   H  1S          0.43536   0.42031   0.25783  -0.00628  -0.06066
  46        2S         -0.27081  -0.90672  -0.90622   0.08297  -0.00086
  47 10  H  1S          0.45827  -0.24869  -0.36170   0.53137  -0.11162
  48        2S         -0.07695   0.76481   1.11745  -0.81860   0.24321
                          41        42        43        44        45
                           V         V         V         V         V
     Eigenvalues --     1.44388   1.54374   1.59009   1.63007   1.77479
   1 1   C  1S          0.02442   0.01413   0.02190   0.00207   0.01561
   2        2S         -0.15628  -0.42327  -0.52899   0.06062  -1.10163
   3        2PX         0.37476   0.14315   0.20155   0.10360  -0.02309
   4        2PY        -0.46945  -0.50775   0.14183   0.16172   0.05410
   5        2PZ         0.00000   0.00000   0.00000   0.00000   0.00000
   6        3S         -0.29665   2.21480  -0.58262  -0.16162   2.05327
   7        3PX        -0.99909   0.42532  -1.28645  -1.14640   0.48559
   8        3PY         0.70178   0.61889  -0.64321  -1.57329   0.04246
   9        3PZ         0.00000   0.00000   0.00000   0.00000   0.00000
  10 2   C  1S          0.01977   0.02443   0.00064   0.01329  -0.00617
  11        2S          0.02064  -0.49854  -0.48745  -0.28345  -0.68635
  12        2PX         0.22321  -0.36858   0.17967  -0.31942  -0.13357
  13        2PY        -0.44983   0.13330  -0.43593  -0.12977   0.18606
  14        2PZ         0.00000   0.00000   0.00000   0.00000   0.00000
  15        3S         -0.14198  -0.09690   1.75603  -0.59741   1.29797
  16        3PX        -0.54910   2.13675  -0.86149   1.12070   0.42046
  17        3PY         1.67375  -0.61746   1.42136   2.16584  -1.51611
  18        3PZ         0.00000   0.00000   0.00000   0.00000   0.00000
  19 3   C  1S         -0.01968   0.02467   0.00041  -0.01318   0.00633
  20        2S         -0.02096  -0.50068  -0.48392   0.28431   0.68319
  21        2PX         0.22636   0.37073  -0.18271  -0.31600  -0.13607
  22        2PY        -0.45034  -0.13161   0.43399  -0.13483   0.18029
  23        2PZ         0.00000   0.00000   0.00000   0.00000   0.00000
  24        3S          0.13846  -0.10150   1.75911   0.58160  -1.30846
  25        3PX        -0.55996  -2.14168   0.86954   1.10292   0.44445
  26        3PY         1.67662   0.59688  -1.39811   2.18306  -1.49821
  27        3PZ         0.00000   0.00000   0.00000   0.00000   0.00000
  28 4   C  1S         -0.02449   0.01432   0.02173  -0.00213  -0.01542
  29        2S          0.15631  -0.42506  -0.52712  -0.05978   1.09400
  30        2PX         0.37712  -0.14447  -0.19998   0.10418  -0.02157
  31        2PY        -0.46740   0.50805  -0.14178   0.16515   0.05485
  32        2PZ         0.00000   0.00000   0.00000   0.00000   0.00000
  33        3S          0.30307   2.21427  -0.58179   0.17872  -2.04629
  34        3PX        -1.00606  -0.41608   1.27334  -1.15678   0.47416
  35        3PY         0.69889  -0.61483   0.63551  -1.58342   0.02496
  36        3PZ         0.00000   0.00000   0.00000   0.00000   0.00000
  37 5   H  1S          0.28597   0.20551  -0.15670  -0.53099   0.12985
  38        2S         -0.59827  -0.18675  -0.61530  -0.46587  -0.28443
  39 6   H  1S          0.47601   0.03659   0.55167   0.55292  -0.04817
  40        2S         -0.82122  -0.80916  -0.06155   0.44698  -0.38222
  41 7   H  1S          0.09337  -0.30163   0.03785  -0.44164   0.09472
  42        2S         -0.23061  -0.69767  -0.24595  -0.66981  -0.22938
  43 8   H  1S         -0.09258  -0.30223   0.03965   0.44047  -0.08624
  44        2S          0.22585  -0.70445  -0.23821   0.66972   0.23940
  45 9   H  1S         -0.47701   0.04062   0.54639  -0.55721   0.04305
  46        2S          0.81989  -0.81049  -0.06193  -0.45114   0.37412
  47 10  H  1S         -0.28696   0.20346  -0.15359   0.53345  -0.12381
  48        2S          0.60213  -0.19083  -0.60882   0.46941   0.28686
                          46        47        48
                           V         V         V
     Eigenvalues --     1.80116   1.97258   2.18608
   1 1   C  1S         -0.01452  -0.00202   0.01502
   2        2S          0.61055  -0.91984   0.76060
   3        2PX         0.12000   0.00756  -0.00079
   4        2PY        -0.02853  -0.00629  -0.03228
   5        2PZ         0.00000   0.00000   0.00000
   6        3S         -0.06694   3.22482  -2.64985
   7        3PX        -0.53240   0.61454  -0.31334
   8        3PY        -1.12189  -0.70384   1.20042
   9        3PZ         0.00000   0.00000   0.00000
  10 2   C  1S         -0.00806  -0.00445  -0.04489
  11        2S          0.18983   1.04419  -1.29399
  12        2PX        -0.24913  -0.15838   0.20970
  13        2PY        -0.31106  -0.05967  -0.00411
  14        2PZ         0.00000   0.00000   0.00000
  15        3S          0.48880  -2.46872   4.69758
  16        3PX         2.21813   1.78910  -1.17066
  17        3PY         0.90578  -0.48554  -1.11355
  18        3PZ         0.00000   0.00000   0.00000
  19 3   C  1S         -0.00790  -0.00440   0.04492
  20        2S          0.19933   1.04502   1.29426
  21        2PX         0.24649   0.15843   0.20948
  22        2PY         0.31336   0.05984  -0.00354
  23        2PZ         0.00000   0.00000   0.00000
  24        3S          0.46965  -2.47260  -4.69590
  25        3PX        -2.20976  -1.79024  -1.17061
  26        3PY        -0.92863   0.48055  -1.11618
  27        3PZ         0.00000   0.00000   0.00000
  28 4   C  1S         -0.01470  -0.00202  -0.01501
  29        2S          0.62606  -0.91939  -0.75961
  30        2PX        -0.12010  -0.00767  -0.00091
  31        2PY         0.02984   0.00645  -0.03217
  32        2PZ         0.00000   0.00000   0.00000
  33        3S         -0.09621   3.22432   2.64803
  34        3PX         0.53598  -0.61461  -0.31403
  35        3PY         1.11957   0.70334   1.20021
  36        3PZ         0.00000   0.00000   0.00000
  37 5   H  1S         -0.36817  -0.11395   0.27703
  38        2S         -0.10392  -0.40848   0.38758
  39 6   H  1S          0.27263  -0.04315  -0.07157
  40        2S          0.49266  -0.21186  -0.03016
  41 7   H  1S         -0.68846  -0.19618  -0.05297
  42        2S         -0.82867  -0.09857   0.00857
  43 8   H  1S         -0.68946  -0.19648   0.05278
  44        2S         -0.82518  -0.09896  -0.00946
  45 9   H  1S          0.27257  -0.04304   0.07177
  46        2S          0.49654  -0.21181   0.03051
  47 10  H  1S         -0.36908  -0.11419  -0.27708
  48        2S         -0.09881  -0.40878  -0.38749
     Density Matrix:
                           1         2         3         4         5
   1 1   C  1S          2.03594
   2        2S          0.09607   0.12086
   3        2PX        -0.00406   0.01566   0.31452
   4        2PY         0.00272  -0.01022  -0.01694   0.30432
   5        2PZ         0.00000   0.00000   0.00000   0.00000   0.21048
   6        3S         -0.36667   0.22411  -0.06824   0.04439   0.00000
   7        3PX        -0.00855  -0.00173   0.19908   0.03461   0.00000
   8        3PY         0.00397   0.00507   0.04667   0.22679   0.00000
   9        3PZ         0.00000   0.00000   0.00000   0.00000   0.24937
  10 2   C  1S          0.02208  -0.03694  -0.06867   0.04796   0.00000
  11        2S         -0.03491   0.03139   0.07330  -0.05101   0.00000
  12        2PX         0.07082  -0.07901  -0.16467   0.12571   0.00000
  13        2PY        -0.04614   0.04869   0.12413  -0.06185   0.00000
  14        2PZ         0.00000   0.00000   0.00000   0.00000   0.20236
  15        3S          0.02937   0.04030   0.18111  -0.12191   0.00000
  16        3PX         0.00429  -0.04021  -0.14071   0.06901   0.00000
  17        3PY         0.01041   0.00978   0.03424  -0.05684   0.00000
  18        3PZ         0.00000   0.00000   0.00000   0.00000   0.23210
  19 3   C  1S         -0.00482   0.00293   0.00429  -0.01171   0.00000
  20        2S          0.00333  -0.00326  -0.00358   0.01001   0.00000
  21        2PX        -0.00548   0.00838   0.00117  -0.01290   0.00000
  22        2PY         0.01129  -0.01317  -0.02644   0.02935   0.00000
  23        2PZ         0.00000   0.00000   0.00000   0.00000  -0.00797
  24        3S          0.01725  -0.02373  -0.03350   0.06452   0.00000
  25        3PX        -0.01789   0.01465   0.02095  -0.02324   0.00000
  26        3PY         0.01916  -0.01774  -0.05208   0.03981   0.00000
  27        3PZ         0.00000   0.00000   0.00000   0.00000  -0.03183
  28 4   C  1S          0.00225  -0.00512  -0.00550   0.00658   0.00000
  29        2S         -0.00512   0.00480   0.00685  -0.00745   0.00000
  30        2PX         0.00550  -0.00685  -0.00755   0.01271   0.00000
  31        2PY        -0.00658   0.00745   0.01271  -0.01021   0.00000
  32        2PZ         0.00000   0.00000   0.00000   0.00000  -0.06382
  33        3S          0.00313   0.00755   0.00546  -0.01745   0.00000
  34        3PX        -0.00259  -0.00118   0.00855   0.00746   0.00000
  35        3PY         0.00227   0.00499   0.01462  -0.01226   0.00000
  36        3PZ         0.00000   0.00000   0.00000   0.00000  -0.09338
  37 5   H  1S         -0.06211   0.05857  -0.18766  -0.08400   0.00000
  38        2S          0.00713   0.01686  -0.15822  -0.06274   0.00000
  39 6   H  1S         -0.06255   0.05972   0.00748   0.20654   0.00000
  40        2S          0.00748   0.01697  -0.00569   0.17039   0.00000
  41 7   H  1S          0.00958  -0.01439  -0.02954   0.00729   0.00000
  42        2S          0.01661  -0.01842  -0.04870   0.00986   0.00000
  43 8   H  1S          0.00493  -0.00627  -0.00311   0.01184   0.00000
  44        2S          0.00098  -0.00369  -0.00963   0.00589   0.00000
  45 9   H  1S          0.00259  -0.00258  -0.00678   0.00441   0.00000
  46        2S          0.00727  -0.00556  -0.01022   0.00989   0.00000
  47 10  H  1S         -0.00203   0.00144   0.00501  -0.00211   0.00000
  48        2S          0.00131  -0.00127  -0.00195  -0.00130   0.00000
                           6         7         8         9        10
   6        3S          0.63110
   7        3PX        -0.05158   0.13804
   8        3PY         0.02960   0.06317   0.19428
   9        3PZ         0.00000   0.00000   0.00000   0.29710
  10 2   C  1S          0.05064  -0.00065  -0.01774   0.00000   2.03773
  11        2S          0.02210   0.02542  -0.01318   0.00000   0.09956
  12        2PX        -0.12357  -0.10244   0.03881   0.00000   0.00272
  13        2PY         0.10652   0.06277  -0.07419   0.00000  -0.00446
  14        2PZ         0.00000   0.00000   0.00000   0.23479   0.00000
  15        3S         -0.08185   0.05726  -0.02615   0.00000  -0.39672
  16        3PX        -0.02766  -0.09301  -0.00420   0.00000   0.03138
  17        3PY         0.01970   0.00706  -0.07408   0.00000   0.01515
  18        3PZ         0.00000   0.00000   0.00000   0.27139   0.00000
  19 3   C  1S          0.03398   0.00986  -0.02035   0.00000   0.01530
  20        2S         -0.02498  -0.00314   0.02085   0.00000  -0.02368
  21        2PX         0.00880  -0.01448  -0.00711   0.00000  -0.00060
  22        2PY        -0.06402  -0.01531   0.06912   0.00000  -0.06803
  23        2PZ         0.00000   0.00000   0.00000  -0.02804   0.00000
  24        3S         -0.07611  -0.01163   0.07464   0.00000   0.02397
  25        3PX         0.00970  -0.00027   0.00223   0.00000  -0.02736
  26        3PY        -0.04748  -0.02889   0.05350   0.00000   0.00905
  27        3PZ         0.00000   0.00000   0.00000  -0.05840   0.00000
  28 4   C  1S          0.00317   0.00260  -0.00227   0.00000  -0.00482
  29        2S          0.00754   0.00118  -0.00498   0.00000   0.00292
  30        2PX        -0.00542   0.00856   0.01462   0.00000  -0.00430
  31        2PY         0.01744   0.00745  -0.01224   0.00000   0.01171
  32        2PZ         0.00000   0.00000   0.00000  -0.09338   0.00000
  33        3S          0.02021   0.00019  -0.01999   0.00000   0.03403
  34        3PX        -0.00018   0.01487   0.01221   0.00000  -0.00987
  35        3PY         0.01998   0.01218  -0.02223   0.00000   0.02037
  36        3PZ         0.00000   0.00000   0.00000  -0.13119   0.00000
  37 5   H  1S          0.18722  -0.13969  -0.09793   0.00000   0.00729
  38        2S          0.07369  -0.11461  -0.08184   0.00000   0.01269
  39 6   H  1S          0.18309   0.03125   0.16723   0.00000   0.01100
  40        2S          0.06889   0.02142   0.13383   0.00000   0.02537
  41 7   H  1S         -0.03551  -0.03973  -0.02309   0.00000  -0.06305
  42        2S         -0.02659  -0.04104  -0.02403   0.00000  -0.00049
  43 8   H  1S         -0.00518   0.00680  -0.00231   0.00000   0.00807
  44        2S          0.00687  -0.00001  -0.01084   0.00000   0.01080
  45 9   H  1S         -0.01140  -0.00691   0.00978   0.00000  -0.01002
  46        2S         -0.01535  -0.00678   0.01236   0.00000  -0.00871
  47 10  H  1S          0.00956   0.00966  -0.00231   0.00000   0.00765
  48        2S          0.00530   0.00464  -0.00519   0.00000   0.00579
                          11        12        13        14        15
  11        2S          0.12172
  12        2PX        -0.01258   0.32075
  13        2PY         0.00567  -0.02034   0.30910
  14        2PZ         0.00000   0.00000   0.00000   0.20949
  15        3S          0.23106   0.02502   0.00796   0.00000   0.65496
  16        3PX        -0.00529   0.24835   0.04472   0.00000   0.01257
  17        3PY        -0.00315   0.03409   0.18705   0.00000  -0.01249
  18        3PZ         0.00000   0.00000   0.00000   0.23394   0.00000
  19 3   C  1S         -0.02369   0.00066   0.06803   0.00000   0.02404
  20        2S          0.02034  -0.00270  -0.06866   0.00000   0.02469
  21        2PX         0.00265   0.00862   0.00020   0.00000   0.00027
  22        2PY         0.06866   0.00005  -0.23589   0.00000   0.19866
  23        2PZ         0.00000   0.00000   0.00000   0.04822   0.00000
  24        3S          0.02473  -0.00067  -0.19878   0.00000  -0.03319
  25        3PX         0.01919  -0.03833  -0.04448   0.00000   0.04518
  26        3PY         0.02506   0.01987  -0.17554   0.00000   0.07125
  27        3PZ         0.00000   0.00000   0.00000   0.03157   0.00000
  28 4   C  1S          0.00332   0.00549  -0.01129   0.00000   0.01733
  29        2S         -0.00326  -0.00839   0.01316   0.00000  -0.02380
  30        2PX         0.00359   0.00114  -0.02648   0.00000   0.03366
  31        2PY        -0.01001  -0.01292   0.02929   0.00000  -0.06458
  32        2PZ         0.00000   0.00000   0.00000  -0.00795   0.00000
  33        3S         -0.02502  -0.00884   0.06410   0.00000  -0.07632
  34        3PX         0.00316  -0.01452  -0.01545   0.00000   0.01177
  35        3PY        -0.02086  -0.00710   0.06913   0.00000  -0.07467
  36        3PZ         0.00000   0.00000   0.00000  -0.02800   0.00000
  37 5   H  1S         -0.01179   0.03106  -0.01014   0.00000  -0.05764
  38        2S         -0.01872   0.06230  -0.01315   0.00000  -0.05230
  39 6   H  1S         -0.01307   0.01920  -0.02544   0.00000  -0.06087
  40        2S         -0.02232   0.04184  -0.04401   0.00000  -0.06366
  41 7   H  1S          0.05926   0.18636   0.08823   0.00000   0.17756
  42        2S          0.01780   0.14190   0.06821   0.00000   0.06045
  43 8   H  1S         -0.01133   0.00862   0.03101   0.00000  -0.05229
  44        2S         -0.01376   0.01890   0.04711   0.00000  -0.04296
  45 9   H  1S          0.00824   0.00533  -0.02552   0.00000   0.03985
  46        2S          0.00789   0.01139  -0.03026   0.00000   0.04198
  47 10  H  1S         -0.00679  -0.00813   0.01674   0.00000  -0.02430
  48        2S         -0.00486   0.00361   0.01794   0.00000  -0.01362
                          16        17        18        19        20
  16        3PX         0.22006
  17        3PY         0.06299   0.13570
  18        3PZ         0.00000   0.00000   0.26373
  19 3   C  1S          0.02739  -0.00912   0.00000   2.03774
  20        2S         -0.01920  -0.02502   0.00000   0.09957   0.12171
  21        2PX        -0.03830   0.02013   0.00000  -0.00271   0.01257
  22        2PY        -0.04458  -0.17546   0.00000   0.00445  -0.00565
  23        2PZ         0.00000   0.00000   0.03159   0.00000   0.00000
  24        3S         -0.04549  -0.07127   0.00000  -0.39683   0.23111
  25        3PX        -0.07472  -0.02319   0.00000  -0.03150   0.00532
  26        3PY        -0.02342  -0.11890   0.00000  -0.01522   0.00315
  27        3PZ         0.00000   0.00000   0.00982   0.00000   0.00000
  28 4   C  1S          0.01796  -0.01924   0.00000   0.02208  -0.03489
  29        2S         -0.01468   0.01776   0.00000  -0.03693   0.03138
  30        2PX         0.02092  -0.05222   0.00000   0.06871  -0.07333
  31        2PY        -0.02327   0.03977   0.00000  -0.04786   0.05090
  32        2PZ         0.00000   0.00000  -0.03179   0.00000   0.00000
  33        3S         -0.00978   0.04755   0.00000   0.05073   0.02204
  34        3PX        -0.00034  -0.02904   0.00000   0.00060  -0.02540
  35        3PY         0.00221   0.05347   0.00000   0.01778   0.01312
  36        3PZ         0.00000   0.00000  -0.05833   0.00000   0.00000
  37 5   H  1S          0.06062   0.01432   0.00000   0.00764  -0.00678
  38        2S          0.07336   0.01753   0.00000   0.00581  -0.00485
  39 6   H  1S          0.00647  -0.04666   0.00000  -0.01002   0.00824
  40        2S          0.01740  -0.04472   0.00000  -0.00871   0.00789
  41 7   H  1S          0.16919   0.07987   0.00000   0.00808  -0.01133
  42        2S          0.13252   0.06469   0.00000   0.01082  -0.01379
  43 8   H  1S          0.03783   0.03154   0.00000  -0.06308   0.05929
  44        2S          0.04532   0.03464   0.00000  -0.00055   0.01784
  45 9   H  1S          0.00250  -0.02439   0.00000   0.01100  -0.01306
  46        2S          0.00929  -0.02953   0.00000   0.02536  -0.02231
  47 10  H  1S          0.00232   0.00138   0.00000   0.00729  -0.01178
  48        2S          0.01670   0.00290   0.00000   0.01268  -0.01871
                          21        22        23        24        25
  21        2PX         0.32079
  22        2PY        -0.02029   0.30908
  23        2PZ         0.00000   0.00000   0.20949
  24        3S         -0.02495  -0.00788   0.00000   0.65522
  25        3PX         0.24827   0.04480   0.00000  -0.01230   0.21992
  26        3PY         0.03427   0.18717   0.00000   0.01255   0.06319
  27        3PZ         0.00000   0.00000   0.23393   0.00000   0.00000
  28 4   C  1S         -0.07087   0.04606   0.00000   0.02927  -0.00437
  29        2S          0.07907  -0.04861   0.00000   0.04033   0.04025
  30        2PX        -0.16497   0.12404   0.00000  -0.18128  -0.14087
  31        2PY         0.12556  -0.06157   0.00000   0.12164   0.06890
  32        2PZ         0.00000   0.00000   0.20235   0.00000   0.00000
  33        3S          0.12373  -0.10647   0.00000  -0.08191   0.02777
  34        3PX        -0.10258   0.06280   0.00000  -0.05725  -0.09303
  35        3PY         0.03878  -0.07412   0.00000   0.02595  -0.00424
  36        3PZ         0.00000   0.00000   0.23479   0.00000   0.00000
  37 5   H  1S          0.00810  -0.01674   0.00000  -0.02428  -0.00238
  38        2S         -0.00363  -0.01793   0.00000  -0.01366  -0.01673
  39 6   H  1S         -0.00532   0.02552   0.00000   0.03985  -0.00247
  40        2S         -0.01136   0.03029   0.00000   0.04196  -0.00924
  41 7   H  1S         -0.00860  -0.03100   0.00000  -0.05247  -0.03783
  42        2S         -0.01890  -0.04720   0.00000  -0.04319  -0.04535
  43 8   H  1S         -0.18627  -0.08842   0.00000   0.17755  -0.16906
  44        2S         -0.14178  -0.06826   0.00000   0.06045  -0.13237
  45 9   H  1S         -0.01922   0.02543   0.00000  -0.06081  -0.00652
  46        2S         -0.04187   0.04395   0.00000  -0.06362  -0.01745
  47 10  H  1S         -0.03107   0.01011   0.00000  -0.05766  -0.06060
  48        2S         -0.06231   0.01307   0.00000  -0.05234  -0.07335
                          26        27        28        29        30
  26        3PY         0.13587
  27        3PZ         0.00000   0.26373
  28 4   C  1S         -0.01042   0.00000   2.03594
  29        2S         -0.00972   0.00000   0.09606   0.12086
  30        2PX         0.03413   0.00000   0.00407  -0.01567   0.31455
  31        2PY        -0.05670   0.00000  -0.00272   0.01020  -0.01693
  32        2PZ         0.00000   0.23209   0.00000   0.00000   0.00000
  33        3S         -0.01972   0.00000  -0.36662   0.22411   0.06827
  34        3PX         0.00707   0.00000   0.00853   0.00174   0.19899
  35        3PY        -0.07410   0.00000  -0.00395  -0.00506   0.04662
  36        3PZ         0.00000   0.27140   0.00000   0.00000   0.00000
  37 5   H  1S         -0.00141   0.00000  -0.00202   0.00143  -0.00500
  38        2S         -0.00293   0.00000   0.00133  -0.00129   0.00196
  39 6   H  1S          0.02440   0.00000   0.00258  -0.00257   0.00678
  40        2S          0.02954   0.00000   0.00726  -0.00555   0.01021
  41 7   H  1S         -0.03162   0.00000   0.00494  -0.00629   0.00312
  42        2S         -0.03478   0.00000   0.00098  -0.00370   0.00964
  43 8   H  1S         -0.08010   0.00000   0.00958  -0.01439   0.02955
  44        2S         -0.06481   0.00000   0.01660  -0.01842   0.04869
  45 9   H  1S          0.04664   0.00000  -0.06255   0.05973  -0.00720
  46        2S          0.04468   0.00000   0.00748   0.01697   0.00589
  47 10  H  1S         -0.01440   0.00000  -0.06211   0.05857   0.18755
  48        2S         -0.01765   0.00000   0.00714   0.01685   0.15813
                          31        32        33        34        35
  31        2PY         0.30430
  32        2PZ         0.00000   0.21044
  33        3S         -0.04425   0.00000   0.63111
  34        3PX         0.03454   0.00000   0.05161   0.13790
  35        3PY         0.22693   0.00000  -0.02947   0.06306   0.19450
  36        3PZ         0.00000   0.24934   0.00000   0.00000   0.00000
  37 5   H  1S          0.00209   0.00000   0.00953  -0.00966   0.00230
  38        2S          0.00126   0.00000   0.00525  -0.00466   0.00516
  39 6   H  1S         -0.00439   0.00000  -0.01139   0.00693  -0.00978
  40        2S         -0.00987   0.00000  -0.01535   0.00680  -0.01237
  41 7   H  1S         -0.01187   0.00000  -0.00524  -0.00684   0.00229
  42        2S         -0.00593   0.00000   0.00686  -0.00003   0.01084
  43 8   H  1S         -0.00727   0.00000  -0.03556   0.03970   0.02310
  44        2S         -0.00981   0.00000  -0.02661   0.04099   0.02403
  45 9   H  1S         -0.20657   0.00000   0.18305  -0.03100  -0.16729
  46        2S         -0.17038   0.00000   0.06885  -0.02124  -0.13386
  47 10  H  1S          0.08425   0.00000   0.18721   0.13957   0.09812
  48        2S          0.06298   0.00000   0.07368   0.11450   0.08202
                          36        37        38        39        40
  36        3PZ         0.29708
  37 5   H  1S          0.00000   0.18526
  38        2S          0.00000   0.13235   0.10524
  39 6   H  1S          0.00000  -0.02780  -0.04185   0.18604
  40        2S          0.00000  -0.03832  -0.03549   0.13071   0.10173
  41 7   H  1S          0.00000   0.02214   0.03456  -0.01879  -0.01318
  42        2S          0.00000   0.02769   0.03755  -0.01697  -0.00897
  43 8   H  1S          0.00000  -0.00189   0.00861   0.00219   0.00479
  44        2S          0.00000   0.00698   0.01385  -0.00175   0.00031
  45 9   H  1S          0.00000  -0.00093  -0.00285   0.00308   0.00483
  46        2S          0.00000  -0.00228  -0.00205   0.00482   0.00781
  47 10  H  1S          0.00000  -0.00048   0.00256  -0.00093  -0.00229
  48        2S          0.00000   0.00257   0.00662  -0.00287  -0.00208
                          41        42        43        44        45
  41 7   H  1S          0.18529
  42        2S          0.12412   0.09141
  43 8   H  1S          0.01728   0.02567   0.18530
  44        2S          0.02565   0.03056   0.12406   0.09130
  45 9   H  1S          0.00221  -0.00173  -0.01878  -0.01694   0.18604
  46        2S          0.00483   0.00035  -0.01317  -0.00895   0.13071
  47 10  H  1S         -0.00191   0.00697   0.02213   0.02767  -0.02780
  48        2S          0.00860   0.01385   0.03456   0.03753  -0.04188
                          46        47        48
  46        2S          0.10172
  47 10  H  1S         -0.03833   0.18527
  48        2S         -0.03552   0.13236   0.10525
    Full Mulliken population analysis:
                           1         2         3         4         5
   1 1   C  1S          2.03594
   2        2S          0.01839   0.12086
   3        2PX         0.00000   0.00000   0.31452
   4        2PY         0.00000   0.00000   0.00000   0.30432
   5        2PZ         0.00000   0.00000   0.00000   0.00000   0.21048
   6        3S         -0.06612   0.17062   0.00000   0.00000   0.00000
   7        3PX         0.00000   0.00000   0.10530   0.00000   0.00000
   8        3PY         0.00000   0.00000   0.00000   0.11996   0.00000
   9        3PZ         0.00000   0.00000   0.00000   0.00000   0.13191
  10 2   C  1S          0.00000  -0.00028  -0.00118  -0.00056   0.00000
  11        2S         -0.00026   0.00384   0.01207   0.00567   0.00000
  12        2PX        -0.00122   0.01301   0.02825   0.02061   0.00000
  13        2PY        -0.00054   0.00541   0.02035   0.00245   0.00000
  14        2PZ         0.00000   0.00000   0.00000   0.00000   0.01440
  15        3S          0.00162   0.01190   0.03284   0.01493   0.00000
  16        3PX        -0.00042   0.01692   0.00969   0.01244   0.00000
  17        3PY         0.00069   0.00278   0.00617  -0.00434   0.00000
  18        3PZ         0.00000   0.00000   0.00000   0.00000   0.04599
  19 3   C  1S          0.00000   0.00000   0.00000   0.00000   0.00000
  20        2S          0.00000   0.00000   0.00000  -0.00001   0.00000
  21        2PX         0.00000   0.00000   0.00000  -0.00002   0.00000
  22        2PY         0.00000  -0.00001  -0.00003  -0.00006   0.00000
  23        2PZ         0.00000   0.00000   0.00000   0.00000   0.00000
  24        3S          0.00005  -0.00066  -0.00054  -0.00208   0.00000
  25        3PX         0.00009  -0.00058  -0.00013  -0.00110   0.00000
  26        3PY         0.00020  -0.00143  -0.00247  -0.00311   0.00000
  27        3PZ         0.00000   0.00000   0.00000   0.00000  -0.00056
  28 4   C  1S          0.00000   0.00000   0.00000   0.00000   0.00000
  29        2S          0.00000   0.00000   0.00000   0.00000   0.00000
  30        2PX         0.00000   0.00000   0.00000   0.00000   0.00000
  31        2PY         0.00000   0.00000   0.00000   0.00000   0.00000
  32        2PZ         0.00000   0.00000   0.00000   0.00000   0.00000
  33        3S          0.00000   0.00000   0.00000   0.00001   0.00000
  34        3PX         0.00000   0.00000  -0.00001   0.00001   0.00000
  35        3PY         0.00000   0.00001   0.00003   0.00003   0.00000
  36        3PZ         0.00000   0.00000   0.00000   0.00000  -0.00003
  37 5   H  1S         -0.00128   0.01194   0.05212   0.01047   0.00000
  38        2S          0.00059   0.00688   0.03403   0.00605   0.00000
  39 6   H  1S         -0.00131   0.01224   0.00009   0.06311   0.00000
  40        2S          0.00062   0.00694  -0.00005   0.04015   0.00000
  41 7   H  1S          0.00000  -0.00003  -0.00018  -0.00001   0.00000
  42        2S          0.00018  -0.00146  -0.00408  -0.00011   0.00000
  43 8   H  1S          0.00000   0.00000   0.00000   0.00000   0.00000
  44        2S          0.00000  -0.00007  -0.00001  -0.00014   0.00000
  45 9   H  1S          0.00000   0.00000   0.00000   0.00000   0.00000
  46        2S          0.00000   0.00000   0.00000   0.00000   0.00000
  47 10  H  1S          0.00000   0.00000   0.00000   0.00000   0.00000
  48        2S          0.00000   0.00000   0.00000   0.00000   0.00000
                           6         7         8         9        10
   6        3S          0.63110
   7        3PX         0.00000   0.13804
   8        3PY         0.00000   0.00000   0.19428
   9        3PZ         0.00000   0.00000   0.00000   0.29710
  10 2   C  1S          0.00280  -0.00006   0.00118   0.00000   2.03773
  11        2S          0.00653   0.01070   0.00375   0.00000   0.01906
  12        2PX         0.02241   0.00706   0.00700   0.00000   0.00000
  13        2PY         0.01304   0.01132  -0.00567   0.00000   0.00000
  14        2PZ         0.00000   0.00000   0.00000   0.04652   0.00000
  15        3S         -0.04449   0.02848   0.00878   0.00000  -0.07153
  16        3PX         0.01376  -0.00822  -0.00129   0.00000   0.00000
  17        3PY         0.00662   0.00217  -0.02489   0.00000   0.00000
  18        3PZ         0.00000   0.00000   0.00000   0.14751   0.00000
  19 3   C  1S          0.00010   0.00005   0.00021   0.00000   0.00000
  20        2S         -0.00069  -0.00013  -0.00168   0.00000  -0.00007
  21        2PX        -0.00014   0.00009  -0.00034   0.00000   0.00000
  22        2PY        -0.00207  -0.00073  -0.00540   0.00000  -0.00058
  23        2PZ         0.00000   0.00000   0.00000  -0.00049   0.00000
  24        3S         -0.00913  -0.00128  -0.01653   0.00000   0.00100
  25        3PX        -0.00106  -0.00001   0.00045   0.00000   0.00000
  26        3PY        -0.01051  -0.00585  -0.01543   0.00000   0.00090
  27        3PZ         0.00000   0.00000   0.00000  -0.00701   0.00000
  28 4   C  1S          0.00000   0.00000   0.00000   0.00000   0.00000
  29        2S          0.00000   0.00000   0.00001   0.00000   0.00000
  30        2PX         0.00000  -0.00001   0.00003   0.00000   0.00000
  31        2PY         0.00001   0.00001   0.00003   0.00000   0.00000
  32        2PZ         0.00000   0.00000   0.00000  -0.00003   0.00000
  33        3S          0.00018   0.00000   0.00044   0.00000   0.00010
  34        3PX         0.00000  -0.00032   0.00050   0.00000   0.00005
[...]
  31        2PY         0.58863
  32        2PZ         0.40212
  33        3S          0.95017
  34        3PX         0.39165
  35        3PY         0.47363
  36        3PZ         0.61428
  37 5   H  1S          0.47680
  38        2S          0.31221
  39 6   H  1S          0.47779
  40        2S          0.30518
  41 7   H  1S          0.47793
  42        2S          0.29144
  43 8   H  1S          0.47796
  44        2S          0.29135
  45 9   H  1S          0.47781
  46        2S          0.30517
  47 10  H  1S          0.47681
  48        2S          0.31222
          Condensed to atoms (all electrons):
               1          2          3          4          5          6
     1  C    5.206779   0.528240  -0.089999   0.001721   0.401124   0.396016
     2  C    0.528240   5.228241   0.323476  -0.090191  -0.057589  -0.049302
     3  C   -0.089999   0.323476   5.228621   0.528175   0.000366   0.002546
     4  C    0.001721  -0.090191   0.528175   5.206879   0.000115  -0.000062
     5  H    0.401124  -0.057589   0.000366   0.000115   0.461467  -0.020699
     6  H    0.396016  -0.049302   0.002546  -0.000062  -0.020699   0.456613
     7  H   -0.034426   0.400927  -0.040300   0.002500   0.002079  -0.002145
     8  H    0.002494  -0.040123   0.400887  -0.034437   0.002142   0.000004
     9  H   -0.000062   0.002549  -0.049264   0.395996  -0.000001   0.000000
    10  H    0.000115   0.000369  -0.057596   0.401122   0.000006  -0.000001
               7          8          9         10
     1  C   -0.034426   0.002494  -0.000062   0.000115
     2  C    0.400927  -0.040123   0.002549   0.000369
     3  C   -0.040300   0.400887  -0.049264  -0.057596
     4  C    0.002500  -0.034437   0.395996   0.401122
     5  H    0.002079   0.002142  -0.000001   0.000006
     6  H   -0.002145   0.000004   0.000000  -0.000001
     7  H    0.437045   0.001533   0.000005   0.002156
     8  H    0.001533   0.436868  -0.002140   0.002078
     9  H    0.000005  -0.002140   0.456612  -0.020719
    10  H    0.002156   0.002078  -0.020719   0.461505
 Mulliken charges:
               1
     1  C   -0.412002
     2  C   -0.246596
     3  C   -0.246913
     4  C   -0.411819
     5  H    0.210989
     6  H    0.217030
     7  H    0.230628
     8  H    0.230694
     9  H    0.217024
    10  H    0.210964
 Sum of Mulliken charges =   0.00000
 Mulliken charges with hydrogens summed into heavy atoms:
               1
     1  C    0.016017
     2  C   -0.015968
     3  C   -0.016219
     4  C    0.016169
 Electronic spatial extent (au):  <R**2>=            332.4823
 Charge=              0.0000 electrons
 Dipole moment (field-independent basis, Debye):
    X=              0.0005    Y=             -0.0008    Z=              0.0000  Tot=              0.0010
 Quadrupole moment (field-independent basis, Debye-Ang):
   XX=            -22.6475   YY=            -22.9937   ZZ=            -29.3144
   XY=             -0.0396   XZ=              0.0000   YZ=              0.0000
 Traceless Quadrupole moment (field-independent basis, Debye-Ang):
   XX=              2.3377   YY=              1.9915   ZZ=             -4.3292
   XY=             -0.0396   XZ=              0.0000   YZ=              0.0000
 Octapole moment (field-independent basis, Debye-Ang**2):
  XXX=             -0.0001  YYY=             -0.0021  ZZZ=              0.0000  XYY=              0.0009
  XXY=             -0.0027  XXZ=              0.0000  XZZ=              0.0003  YZZ=             -0.0006
  YYZ=              0.0000  XYZ=              0.0000
 Hexadecapole moment (field-independent basis, Debye-Ang**3):
 XXXX=           -139.7836 YYYY=           -242.8015 ZZZZ=            -30.9212 XXXY=             64.9218
 XXXZ=              0.0000 YYYX=             59.4700 YYYZ=              0.0000 ZZZX=              0.0000
 ZZZY=              0.0000 XXYY=            -66.9093 XXZZ=            -33.7347 YYZZ=            -57.0891
 XXYZ=              0.0000 YYXZ=              0.0000 ZZXY=             25.7355
 N-N= 1.044775996549D+02 E-N=-5.667791814306D+02  KE= 1.537444862406D+02
 Symmetry A'   KE= 1.498120458408D+02
 Symmetry A"   KE= 3.932440399726D+00
 Orbital energies and kinetic energies (alpha):
                                 1                 2
   1         O               -11.178559         15.873443
   2         O               -11.178136         15.872343
   3         O               -11.166439         15.870463
   4         O               -11.166325         15.868622
   5         O                -1.093367          1.516961
   6         O                -1.007293          1.571731
   7         O                -0.821902          1.390035
   8         O                -0.755789          1.118880
   9         O                -0.649664          1.155984
  10         O                -0.640241          1.042218
  11         O                -0.561784          1.378715
  12         O                -0.542502          1.087854
  13         O                -0.484624          1.158773
  14         O                -0.447941          0.923542
  15         O                -0.325143          1.042678
  16         V                 0.131806          1.132159
  17         V                 0.270559          1.231003
  18         V                 0.286393          0.861846
  19         V                 0.299984          0.925083
  20         V                 0.308815          1.006741
  21         V                 0.357929          1.057066
  22         V                 0.375681          1.245423
  23         V                 0.405728          1.053921
  24         V                 0.558724          1.837338
  25         V                 0.561426          1.207985
  26         V                 0.610737          1.398711
  27         V                 0.829603          2.057135
  28         V                 0.902615          1.900230
  29         V                 0.969621          2.550731
  30         V                 0.997817          2.443856
  31         V                 1.018287          2.670173
  32         V                 1.108798          2.767434
  33         V                 1.109165          2.546617
  34         V                 1.113360          3.050633
  35         V                 1.115031          2.827682
  36         V                 1.129804          2.320128
  37         V                 1.315799          3.257746
  38         V                 1.322988          3.303262
  39         V                 1.377247          3.217100
  40         V                 1.380702          3.146556
  41         V                 1.443876          3.439789
  42         V                 1.543742          2.937496
  43         V                 1.590092          2.838979
  44         V                 1.630074          2.508522
  45         V                 1.774788          3.203087
  46         V                 1.801161          2.854031
  47         V                 1.972578          3.347247
  48         V                 2.186078          3.348237
 Total kinetic energy from orbitals= 1.537444862406D+02
 Calling FoFJK, ICntrl=      2127 FMM=F ISym2X=1 I1Cent= 0 IOpClX= 0 NMat=1 NMatS=1 NMatT=0.
 ***** Axes restored to original set *****
 -------------------------------------------------------------------
 Center     Atomic                   Forces (Hartrees/Bohr)
 Number     Number              X              Y              Z
 -------------------------------------------------------------------
      1        6          -0.000011164    0.000019743    0.000000000
      2        6          -0.000172453    0.000053594    0.000000000
      3        6           0.000023429   -0.000034663    0.000000000
      4        6           0.000014101    0.000020984    0.000000000
      5        1           0.000024186   -0.000006436    0.000000000
      6        1           0.000032347    0.000031367    0.000000000
      7        1           0.000035887   -0.000054427    0.000000000
      8        1           0.000063092   -0.000003394    0.000000000
      9        1           0.000003445   -0.000020677    0.000000000
     10        1          -0.000012869   -0.000006090    0.000000000
 -------------------------------------------------------------------
 Cartesian Forces:  Max     0.000172453 RMS     0.000039605

 GradGradGradGradGradGradGradGradGradGradGradGradGradGradGradGradGradGrad
 Berny optimization.
 FormGI is forming the generalized inverse of G from B-inverse, IUseBI=4.
 Internal  Forces:  Max     0.000168286 RMS     0.000043757
 Search for a local minimum.
 Step number   1 out of a maximum of   43
 All quantities printed in internal units (Hartrees-Bohrs-Radians)
 Mixed Optimization -- En-DIIS/RFO-DIIS
 Second derivative matrix not updated -- first step.
 ITU=  0
     Eigenvalues ---    0.01200   0.02204   0.02206   0.03141   0.03141
     Eigenvalues ---    0.03142   0.03142   0.16000   0.16000   0.16000
     Eigenvalues ---    0.16000   0.16000   0.16000   0.22000   0.22000
     Eigenvalues ---    0.36081   0.36521   0.36534   0.36678   0.36680
     Eigenvalues ---    0.36919   0.36920   0.61824   0.61836
 RFO step:  Lambda=-2.95309698D-07 EMin= 1.20018790D-02
 Linear search not attempted -- first point.
 Iteration  1 RMS(Cart)=  0.00062287 RMS(Int)=  0.00000014
 Iteration  2 RMS(Cart)=  0.00000020 RMS(Int)=  0.00000000
 ClnCor:  largest displacement from symmetrization is 2.31D-16 for atom     4.
 Variable       Old X    -DE/DX   Delta X   Delta X   Delta X     New X
                                 (Linear)    (Quad)   (Total)
    R1        2.49516   0.00001   0.00000   0.00002   0.00002   2.49518
    R2        2.03032   0.00002   0.00000   0.00005   0.00005   2.03037
    R3        2.02669  -0.00003   0.00000  -0.00009  -0.00009   2.02660
    R4        2.77255  -0.00004   0.00000  -0.00012  -0.00012   2.77243
    R5        2.03275  -0.00001   0.00000  -0.00002  -0.00002   2.03273
    R6        2.49525  -0.00001   0.00000  -0.00001  -0.00001   2.49524
    R7        2.03255   0.00006   0.00000   0.00015   0.00015   2.03270
    R8        2.02666  -0.00002   0.00000  -0.00006  -0.00006   2.02661
    R9        2.03034   0.00001   0.00000   0.00004   0.00004   2.03038
    A1        2.12584   0.00000   0.00000   0.00000   0.00000   2.12585
    A2        2.12538   0.00003   0.00000   0.00020   0.00020   2.12558
    A3        2.03196  -0.00003   0.00000  -0.00020  -0.00020   2.03176
    A4        2.16435  -0.00017   0.00000  -0.00076  -0.00076   2.16358
    A5        2.09280   0.00002   0.00000  -0.00003  -0.00003   2.09277
    A6        2.02604   0.00015   0.00000   0.00079   0.00079   2.02683
    A7        2.16317   0.00002   0.00000   0.00010   0.00010   2.16327
    A8        2.02740  -0.00004   0.00000  -0.00025  -0.00025   2.02715
    A9        2.09261   0.00002   0.00000   0.00014   0.00014   2.09276
   A10        2.12571  -0.00001   0.00000  -0.00003  -0.00003   2.12568
   A11        2.12582   0.00000   0.00000   0.00002   0.00002   2.12583
   A12        2.03166   0.00000   0.00000   0.00002   0.00002   2.03168
    D1        0.00000   0.00000   0.00000   0.00000   0.00000   0.00000
    D2        3.14159   0.00000   0.00000   0.00000   0.00000   3.14159
    D3        3.14159   0.00000   0.00000   0.00000   0.00000   3.14159
    D4        0.00000   0.00000   0.00000   0.00000   0.00000   0.00000
    D5        3.14159   0.00000   0.00000   0.00000   0.00000   3.14159
    D6        0.00000   0.00000   0.00000   0.00000   0.00000   0.00000
    D7        0.00000   0.00000   0.00000   0.00000   0.00000   0.00000
    D8        3.14159   0.00000   0.00000   0.00000   0.00000   3.14159
    D9        3.14159   0.00000   0.00000   0.00000   0.00000   3.14159
   D10        0.00000   0.00000   0.00000   0.00000   0.00000   0.00000
   D11        0.00000   0.00000   0.00000   0.00000   0.00000   0.00000
   D12        3.14159   0.00000   0.00000   0.00000   0.00000   3.14159
         Item               Value     Threshold  Converged?
 Maximum Force            0.000168     0.000450     YES
 RMS     Force            0.000044     0.000300     YES
 Maximum Displacement     0.001546     0.001800     YES
 RMS     Displacement     0.000623     0.001200     YES
 Predicted change in Energy=-1.476548D-07
 Optimization completed.
    -- Stationary point found.
                           ----------------------------
                           !   Optimized Parameters   !
                           ! (Angstroms and Degrees)  !
 --------------------------                            --------------------------
 ! Name  Definition              Value          Derivative Info.                !
 --------------------------------------------------------------------------------
 ! R1    R(1,2)                  1.3204         -DE/DX =    0.0                 !
 ! R2    R(1,5)                  1.0744         -DE/DX =    0.0                 !
 ! R3    R(1,6)                  1.0725         -DE/DX =    0.0                 !
 ! R4    R(2,3)                  1.4672         -DE/DX =    0.0                 !
 ! R5    R(2,7)                  1.0757         -DE/DX =    0.0                 !
 ! R6    R(3,4)                  1.3204         -DE/DX =    0.0                 !
 ! R7    R(3,8)                  1.0756         -DE/DX =    0.0001              !
 ! R8    R(4,9)                  1.0725         -DE/DX =    0.0                 !
 ! R9    R(4,10)                 1.0744         -DE/DX =    0.0                 !
 ! A1    A(2,1,5)              121.8019         -DE/DX =    0.0                 !
 ! A2    A(2,1,6)              121.7754         -DE/DX =    0.0                 !
 ! A3    A(5,1,6)              116.4227         -DE/DX =    0.0                 !
 ! A4    A(1,2,3)              124.0079         -DE/DX =   -0.0002              !
 ! A5    A(1,2,7)              119.9086         -DE/DX =    0.0                 !
 ! A6    A(3,2,7)              116.0835         -DE/DX =    0.0001              !
 ! A7    A(2,3,4)              123.9405         -DE/DX =    0.0                 !
 ! A8    A(2,3,8)              116.1615         -DE/DX =    0.0                 !
 ! A9    A(4,3,8)              119.898          -DE/DX =    0.0                 !
 ! A10   A(3,4,9)              121.7942         -DE/DX =    0.0                 !
 ! A11   A(3,4,10)             121.8004         -DE/DX =    0.0                 !
 ! A12   A(9,4,10)             116.4054         -DE/DX =    0.0                 !
 ! D1    D(5,1,2,3)              0.0            -DE/DX =    0.0                 !
 ! D2    D(5,1,2,7)            180.0            -DE/DX =    0.0                 !
 ! D3    D(6,1,2,3)            180.0            -DE/DX =    0.0                 !
 ! D4    D(6,1,2,7)              0.0            -DE/DX =    0.0                 !
 ! D5    D(1,2,3,4)            180.0            -DE/DX =    0.0                 !
 ! D6    D(1,2,3,8)              0.0            -DE/DX =    0.0                 !
 ! D7    D(7,2,3,4)              0.0            -DE/DX =    0.0                 !
 ! D8    D(7,2,3,8)            180.0            -DE/DX =    0.0                 !
 ! D9    D(2,3,4,9)            180.0            -DE/DX =    0.0                 !
 ! D10   D(2,3,4,10)             0.0            -DE/DX =    0.0                 !
 ! D11   D(8,3,4,9)              0.0            -DE/DX =    0.0                 !
 ! D12   D(8,3,4,10)           180.0            -DE/DX =    0.0                 !
 --------------------------------------------------------------------------------
 GradGradGradGradGradGradGradGradGradGradGradGradGradGradGradGradGradGrad

                          Input orientation:                          
 ---------------------------------------------------------------------
 Center     Atomic      Atomic             Coordinates (Angstroms)
 Number     Number       Type             X           Y           Z
 ---------------------------------------------------------------------
      1          6           0        1.094240   -1.472207    0.000000
      2          6           0        0.000000   -0.733254    0.000000
      3          6           0        0.000606    0.733918    0.000000
      4          6           0       -1.094541    1.471609    0.000000
      5          1           0        2.074479   -1.032360    0.000000
      6          1           0        1.052019   -2.543852    0.000000
      7          1           0       -0.966328   -1.205814    0.000000
      8          1           0        0.966194    1.207746    0.000000
      9          1           0       -1.053933    2.543304    0.000000
     10          1           0       -2.074260    1.030578    0.000000
 ---------------------------------------------------------------------
                    Distance matrix (angstroms):
                    1          2          3          4          5
     1  C    0.000000
     2  C    1.320383   0.000000
     3  C    2.462321   1.467173   0.000000
     4  C    3.668353   2.461594   1.320430   0.000000
     5  H    1.074399   2.095931   2.724093   4.038879   0.000000
     6  H    1.072477   2.094041   3.442273   4.553202   1.824838
     7  H    2.077716   1.075687   2.167377   2.680491   3.045749
     8  H    2.683010   2.168182   1.075580   2.077559   2.499273
     9  H    4.554007   3.441891   2.094261   1.072464   4.751035
    10  H    4.037738   2.722804   2.095967   1.074410   4.633330
                    6          7          8          9         10
     6  H    0.000000
     7  H    2.421584   0.000000
     8  H    3.752579   3.091911   0.000000
     9  H    5.505832   3.750142   2.421700   0.000000
    10  H    4.748702   2.495789   3.045611   1.824666   0.000000
 Stoichiometry    C4H6
 Framework group  CS[SG(C4H6)]
 Deg. of freedom    17
 Full point group                 CS      NOp   2
 Largest Abelian subgroup         CS      NOp   2
 Largest concise Abelian subgroup C1      NOp   1
                         Standard orientation:                         
 ---------------------------------------------------------------------
 Center     Atomic      Atomic             Coordinates (Angstroms)
 Number     Number       Type             X           Y           Z
 ---------------------------------------------------------------------
      1          6           0       -1.094240    1.472207    0.000000
      2          6           0        0.000000    0.733254    0.000000
      3          6           0       -0.000606   -0.733918    0.000000
      4          6           0        1.094541   -1.471609    0.000000
      5          1           0       -2.074479    1.032360    0.000000
      6          1           0       -1.052019    2.543852    0.000000
      7          1           0        0.966328    1.205814    0.000000
      8          1           0       -0.966194   -1.207746    0.000000
      9          1           0        1.053933   -2.543304    0.000000
     10          1           0        2.074260   -1.030578    0.000000
 ---------------------------------------------------------------------
 Rotational constants (GHZ):     42.8062050      4.4818519      4.0570724
 1\1\GINC-FREDZIEGLER\FOpt\RHF\3-21G\C4H6\FREDZIEGLER\25-Nov-2016\0\\# 
 opt hf/3-21g geom=connectivity pop=full gfprint\\butadiene\\0,1\C,1.09
 423995,-1.47220684,0.\C,0.,-0.73325441,0.\C,0.00060621,0.7339183,0.\C,
 -1.09454119,1.47160925,0.\H,2.07447856,-1.03235956,0.\H,1.05201895,-2.
 54385198,0.\H,-0.9663277,-1.20581412,0.\H,0.96619375,1.20774586,0.\H,-
 1.05393331,2.54330403,0.\H,-2.07426008,1.03057796,0.\\Version=EM64M-G0
 9RevD.01\State=1-A'\HF=-154.0594564\RMSD=8.738e-09\RMSF=3.961e-05\Dipo
 le=-0.0001828,0.0003338,0.\Quadrupole=1.7380029,1.4806322,-3.2186351,-
 0.0294366,0.,0.\PG=CS [SG(C4H6)]\\@


 ROSE IS A RED
 TY COBB IS BLUE
 'CAUSE PETE JUST HIT
 NO. 4592.
 Job cpu time:       0 days  0 hours  0 minutes  1.2 seconds.
 File lengths (MBytes):  RWF=      5 Int=      0 D2E=      0 Chk=      1 Scr=      1
 Normal termination of Gaussian 09 at Fri Nov 25 19:21:28 2016.
