[Molden Format]
[Title]
                                                                                
[Atoms] AU
 c     1    6 -.37804349233604E+01 0.72754456116097E+00 0.00000000000000E+00
 h     2    1 -.37804349233604E+01 0.29385241366372E+01 0.00000000000000E+00
 h     3    1 -.56951999275068E+01 -.37794522657713E+00 0.00000000000000E+00
 c     4    6 -.12601449744535E+01 -.72754456116098E+00 0.00000000000000E+00
 h     5    1 -.12601449744535E+01 -.29385241366372E+01 0.00000000000000E+00
 c     6    6 0.12601449744535E+01 0.72754456116098E+00 0.00000000000000E+00
 h     7    1 0.12601449744535E+01 0.29385241366372E+01 0.00000000000000E+00
 c     8    6 0.37804349233604E+01 -.72754456116097E+00 0.00000000000000E+00
 h     9    1 0.37804349233604E+01 -.29385241366372E+01 0.00000000000000E+00
 h    10    1 0.56951999275068E+01 0.37794522657713E+00 0.00000000000000E+00
[GTO]
    1 0
 s    5 1.00
 0.12384016938000E+04 0.55173650481097E-02
 0.18629004992000E+03 0.41088828555946E-01
 0.42251176346000E+02 0.18225382126490E+00
 0.11676557932000E+02 0.46828459437429E+00
 0.35930506482000E+01 0.44575817336002E+00
 s    1 1.00
 0.40245147363000E+00 0.10000000000000E+01
 s    1 1.00
 0.13090182668000E+00 0.10000000000000E+01
 p    3 1.00
 0.94680970621000E+01 0.56888332011037E-01
 0.20103545142000E+01 0.31294059336471E+00
 0.54771004707000E+00 0.76065016509135E+00
 p    1 1.00
 0.15268613795000E+00 0.10000000000000E+01
 d    1 1.00
 0.80000000000000E+00 0.10000000000000E+01
 
    2 0
 s    3 1.00
 0.13010701000000E+02 0.33485484812989E-01
 0.19622572000000E+01 0.23472187088125E+00
 0.44453796000000E+00 0.81377028525955E+00
 s    1 1.00
 0.12194962000000E+00 0.10000000000000E+01
 
    3 0
 s    3 1.00
 0.13010701000000E+02 0.33485484812989E-01
 0.19622572000000E+01 0.23472187088125E+00
 0.44453796000000E+00 0.81377028525955E+00
 s    1 1.00
 0.12194962000000E+00 0.10000000000000E+01
 
    4 0
 s    5 1.00
 0.12384016938000E+04 0.55173650481097E-02
 0.18629004992000E+03 0.41088828555946E-01
 0.42251176346000E+02 0.18225382126490E+00
 0.11676557932000E+02 0.46828459437429E+00
 0.35930506482000E+01 0.44575817336002E+00
 s    1 1.00
 0.40245147363000E+00 0.10000000000000E+01
 s    1 1.00
 0.13090182668000E+00 0.10000000000000E+01
 p    3 1.00
 0.94680970621000E+01 0.56888332011037E-01
 0.20103545142000E+01 0.31294059336471E+00
 0.54771004707000E+00 0.76065016509135E+00
 p    1 1.00
 0.15268613795000E+00 0.10000000000000E+01
 d    1 1.00
 0.80000000000000E+00 0.10000000000000E+01
 
    5 0
 s    3 1.00
 0.13010701000000E+02 0.33485484812989E-01
 0.19622572000000E+01 0.23472187088125E+00
 0.44453796000000E+00 0.81377028525955E+00
 s    1 1.00
 0.12194962000000E+00 0.10000000000000E+01
 
    6 0
 s    5 1.00
 0.12384016938000E+04 0.55173650481097E-02
 0.18629004992000E+03 0.41088828555946E-01
 0.42251176346000E+02 0.18225382126490E+00
 0.11676557932000E+02 0.46828459437429E+00
 0.35930506482000E+01 0.44575817336002E+00
 s    1 1.00
 0.40245147363000E+00 0.10000000000000E+01
 s    1 1.00
 0.13090182668000E+00 0.10000000000000E+01
 p    3 1.00
 0.94680970621000E+01 0.56888332011037E-01
 0.20103545142000E+01 0.31294059336471E+00
 0.54771004707000E+00 0.76065016509135E+00
 p    1 1.00
 0.15268613795000E+00 0.10000000000000E+01
 d    1 1.00
 0.80000000000000E+00 0.10000000000000E+01
 
    7 0
 s    3 1.00
 0.13010701000000E+02 0.33485484812989E-01
 0.19622572000000E+01 0.23472187088125E+00
 0.44453796000000E+00 0.81377028525955E+00
 s    1 1.00
 0.12194962000000E+00 0.10000000000000E+01
 
    8 0
 s    5 1.00
 0.12384016938000E+04 0.55173650481097E-02
 0.18629004992000E+03 0.41088828555946E-01
 0.42251176346000E+02 0.18225382126490E+00
 0.11676557932000E+02 0.46828459437429E+00
 0.35930506482000E+01 0.44575817336002E+00
 s    1 1.00
 0.40245147363000E+00 0.10000000000000E+01
 s    1 1.00
 0.13090182668000E+00 0.10000000000000E+01
 p    3 1.00
 0.94680970621000E+01 0.56888332011037E-01
 0.20103545142000E+01 0.31294059336471E+00
 0.54771004707000E+00 0.76065016509135E+00
 p    1 1.00
 0.15268613795000E+00 0.10000000000000E+01
 d    1 1.00
 0.80000000000000E+00 0.10000000000000E+01
 
    9 0
 s    3 1.00
 0.13010701000000E+02 0.33485484812989E-01
 0.19622572000000E+01 0.23472187088125E+00
 0.44453796000000E+00 0.81377028525955E+00
 s    1 1.00
 0.12194962000000E+00 0.10000000000000E+01
 
   10 0
 s    3 1.00
 0.13010701000000E+02 0.33485484812989E-01
 0.19622572000000E+01 0.23472187088125E+00
 0.44453796000000E+00 0.81377028525955E+00
 s    1 1.00
 0.12194962000000E+00 0.10000000000000E+01
 
[MO]
 Sym=     1bu  
 Ene= -.99591302228480E+01
 Spin= Alpha
 Occup= 2.000000
     1 -.34370602225647E-02
     2 -.17703970248041E-02
     3 0.80629813928582E-02
     4 -.10749996089432E-02
     5 0.78867396240869E-03
     6 0.00000000000000E+00
     7 0.17407256458660E-02
     8 -.20343785862411E-02
     9 0.00000000000000E+00
    10 -.45940650209712E-03
    11 0.43414411808092E-04
    12 0.41599209028902E-03
    13 0.55696015743066E-03
    14 0.00000000000000E+00
    15 0.00000000000000E+00
    16 -.42360978308259E-04
    17 0.19459079753872E-03
    18 -.34888814892075E-03
    19 -.83738387880909E-03
    20 0.69877623276309E+00
    21 0.33259790894764E-01
    22 -.32994018422436E-01
    23 0.12556080996176E-02
    24 0.94541742560207E-03
    25 0.00000000000000E+00
    26 -.10773651762315E-02
    27 -.12225287455178E-02
    28 0.00000000000000E+00
    29 0.77026193100848E-03
    30 -.28527966725280E-04
    31 -.74173396428320E-03
    32 0.60982946496720E-03
    33 0.00000000000000E+00
    34 0.00000000000000E+00
    35 -.13148780420331E-02
    36 0.65444123280407E-02
    37 -.69877623276309E+00
    38 -.33259790894764E-01
    39 0.32994018422436E-01
    40 0.12556080996176E-02
    41 0.94541742560207E-03
    42 0.00000000000000E+00
    43 -.10773651762315E-02
    44 -.12225287455178E-02
    45 0.00000000000000E+00
    46 -.77026193100848E-03
    47 0.28527966725280E-04
    48 0.74173396428320E-03
    49 -.60982946496720E-03
    50 0.00000000000000E+00
    51 0.00000000000000E+00
    52 0.13148780420331E-02
    53 -.65444123280407E-02
    54 0.34370602225647E-02
    55 0.17703970248041E-02
    56 -.80629813928582E-02
    57 -.10749996089432E-02
    58 0.78867396240869E-03
    59 0.00000000000000E+00
    60 0.17407256458660E-02
    61 -.20343785862411E-02
    62 0.00000000000000E+00
    63 0.45940650209712E-03
    64 -.43414411808092E-04
    65 -.41599209028902E-03
    66 -.55696015743066E-03
    67 0.00000000000000E+00
    68 0.00000000000000E+00
    69 0.42360978308259E-04
    70 -.19459079753872E-03
    71 0.34888814892075E-03
    72 0.83738387880909E-03
 Sym=     1ag  
 Ene= -.99590094228905E+01
 Spin= Alpha
 Occup= 2.000000
     1 -.31350512528636E-02
     2 -.20881193381430E-02
     3 0.81110913347194E-02
     4 -.12315167393560E-02
     5 0.48872743976092E-03
     6 0.00000000000000E+00
     7 0.29492325077308E-02
     8 0.98087449357825E-03
     9 0.00000000000000E+00
    10 -.44636974914486E-03
    11 0.10643753591067E-03
    12 0.33993221323419E-03
    13 0.60835758587355E-03
    14 0.00000000000000E+00
    15 0.00000000000000E+00
    16 -.61442110439610E-03
    17 -.15691347097525E-02
    18 0.21074388916210E-03
    19 0.14217240396045E-03
    20 0.69941718800341E+00
    21 0.29821916454271E-01
    22 -.17735621963003E-01
    23 -.90346526916366E-03
    24 -.12348047982000E-03
    25 0.00000000000000E+00
    26 0.17834168852880E-02
    27 -.26809795638448E-02
    28 0.00000000000000E+00
    29 -.14572731613016E-03
    30 0.10075749790919E-03
    31 0.44969818220966E-04
    32 -.59306508196433E-03
    33 0.00000000000000E+00
    34 0.00000000000000E+00
    35 -.23951851131848E-02
    36 0.41443386146664E-02
    37 0.69941718800341E+00
    38 0.29821916454271E-01
    39 -.17735621963003E-01
    40 0.90346526916366E-03
    41 0.12348047982000E-03
    42 0.00000000000000E+00
    43 -.17834168852880E-02
    44 0.26809795638448E-02
    45 0.00000000000000E+00
    46 -.14572731613016E-03
    47 0.10075749790919E-03
    48 0.44969818220966E-04
    49 -.59306508196433E-03
    50 0.00000000000000E+00
    51 0.00000000000000E+00
    52 -.23951851131848E-02
    53 0.41443386146664E-02
    54 -.31350512528636E-02
    55 -.20881193381430E-02
    56 0.81110913347194E-02
    57 0.12315167393560E-02
    58 -.48872743976092E-03
    59 0.00000000000000E+00
    60 -.29492325077308E-02
    61 -.98087449357825E-03
    62 0.00000000000000E+00
    63 -.44636974914486E-03
    64 0.10643753591067E-03
    65 0.33993221323419E-03
    66 0.60835758587355E-03
    67 0.00000000000000E+00
    68 0.00000000000000E+00
    69 -.61442110439610E-03
    70 -.15691347097525E-02
    71 0.21074388916210E-03
    72 0.14217240396045E-03
 Sym=     2ag  
 Ene= -.99477288404446E+01
 Spin= Alpha
 Occup= 2.000000
     1 0.69914954514377E+00
     2 0.31304699993211E-01
     3 -.20853696544819E-01
     4 0.45440088494718E-03
     5 -.10917139184504E-03
     6 0.00000000000000E+00
     7 0.52863628622190E-03
     8 -.51055190180807E-03
     9 0.00000000000000E+00
    10 0.25244628596179E-03
    11 0.41537493350526E-04
    12 -.29398377931232E-03
    13 -.12648888559566E-03
    14 0.00000000000000E+00
    15 0.00000000000000E+00
    16 -.15749012514382E-02
    17 0.54717021981099E-02
    18 -.17892917738139E-02
    19 0.54349375308142E-02
    20 0.37881942148475E-02
    21 -.16711899700330E-02
    22 0.51201151037813E-02
    23 0.89366756062991E-03
    24 -.32651963543036E-03
    25 0.00000000000000E+00
    26 0.11945858772322E-02
    27 -.31812137344562E-02
    28 0.00000000000000E+00
    29 -.48684380812895E-03
    30 0.12051436316093E-03
    31 0.36632944496802E-03
    32 0.58723839497348E-03
    33 0.00000000000000E+00
    34 0.00000000000000E+00
    35 -.90587687180674E-03
    36 -.20908634546984E-02
    37 0.37881942148475E-02
    38 -.16711899700330E-02
    39 0.51201151037813E-02
    40 -.89366756062991E-03
    41 0.32651963543036E-03
    42 0.00000000000000E+00
    43 -.11945858772322E-02
    44 0.31812137344562E-02
    45 0.00000000000000E+00
    46 -.48684380812895E-03
    47 0.12051436316093E-03
    48 0.36632944496802E-03
    49 0.58723839497348E-03
    50 0.00000000000000E+00
    51 0.00000000000000E+00
    52 -.90587687180674E-03
    53 -.20908634546984E-02
    54 0.69914954514377E+00
    55 0.31304699993211E-01
    56 -.20853696544819E-01
    57 -.45440088494718E-03
    58 0.10917139184504E-03
    59 0.00000000000000E+00
    60 -.52863628622190E-03
    61 0.51055190180807E-03
    62 0.00000000000000E+00
    63 0.25244628596179E-03
    64 0.41537493350526E-04
    65 -.29398377931232E-03
    66 -.12648888559566E-03
    67 0.00000000000000E+00
    68 0.00000000000000E+00
    69 -.15749012514382E-02
    70 0.54717021981099E-02
    71 -.17892917738139E-02
    72 0.54349375308142E-02
 Sym=     2bu  
 Ene= -.99477070696131E+01
 Spin= Alpha
 Occup= 2.000000
     1 0.69919421621982E+00
     2 0.30911674938085E-01
     3 -.24353961394210E-01
     4 0.16423664947166E-03
     5 -.74382567014640E-04
     6 0.00000000000000E+00
     7 -.69707516427137E-03
     8 0.49271785052328E-04
     9 0.00000000000000E+00
    10 0.20271210768073E-03
    11 0.86498030104808E-04
    12 -.28921013778554E-03
    13 -.12495127285392E-03
    14 0.00000000000000E+00
    15 0.00000000000000E+00
    16 -.16257117937252E-02
    17 0.58495006557844E-02
    18 -.16841517597888E-02
    19 0.55682594571919E-02
    20 0.40621795331221E-02
    21 -.13910899327182E-02
    22 0.74178736092310E-02
    23 0.12609661871972E-02
    24 -.76319116637007E-03
    25 0.00000000000000E+00
    26 -.13035236068261E-02
    27 0.17144070864246E-02
    28 0.00000000000000E+00
    29 -.47666310141533E-03
    30 0.56461665537953E-04
    31 0.42020143587738E-03
    32 0.60959013117924E-03
    33 0.00000000000000E+00
    34 0.00000000000000E+00
    35 -.59285741419235E-04
    36 -.51706693852388E-05
    37 -.40621795331221E-02
    38 0.13910899327182E-02
    39 -.74178736092310E-02
    40 0.12609661871972E-02
    41 -.76319116637007E-03
    42 0.00000000000000E+00
    43 -.13035236068261E-02
    44 0.17144070864246E-02
    45 0.00000000000000E+00
    46 0.47666310141533E-03
    47 -.56461665537953E-04
    48 -.42020143587738E-03
    49 -.60959013117924E-03
    50 0.00000000000000E+00
    51 0.00000000000000E+00
    52 0.59285741419235E-04
    53 0.51706693852388E-05
    54 -.69919421621982E+00
    55 -.30911674938085E-01
    56 0.24353961394210E-01
    57 0.16423664947166E-03
    58 -.74382567014640E-04
    59 0.00000000000000E+00
    60 -.69707516427137E-03
    61 0.49271785052328E-04
    62 0.00000000000000E+00
    63 -.20271210768073E-03
    64 -.86498030104808E-04
    65 0.28921013778554E-03
    66 0.12495127285392E-03
    67 0.00000000000000E+00
    68 0.00000000000000E+00
    69 0.16257117937252E-02
    70 -.58495006557844E-02
    71 0.16841517597888E-02
    72 -.55682594571919E-02
 Sym=     3ag  
 Ene= -.68389959094241E+00
 Spin= Alpha
 Occup= 2.000000
     1 -.10233965960347E+00
     2 0.20728708573421E+00
     3 0.80836707960173E-01
     4 0.52864692838912E-01
     5 -.21527003533514E-01
     6 0.00000000000000E+00
     7 0.16722267400309E-01
     8 -.85580131487411E-02
     9 0.00000000000000E+00
    10 0.30072373710554E-02
    11 0.95846828344100E-03
    12 -.39657056544964E-02
    13 -.11776299992851E-02
    14 0.00000000000000E+00
    15 0.00000000000000E+00
    16 0.49253603626180E-01
    17 0.46818321241596E-02
    18 0.43290593947515E-01
    19 0.35603432959664E-02
    20 -.17324588066151E+00
    21 0.35743368238418E+00
    22 0.10386034898266E+00
    23 0.31730496632051E-01
    24 0.43607928083106E-01
    25 0.00000000000000E+00
    26 0.13282532362271E-01
    27 0.79419837357760E-02
    28 0.00000000000000E+00
    29 0.38053943805344E-02
    30 0.21782712219655E-02
    31 -.59836656024999E-02
    32 0.98279287043477E-03
    33 0.00000000000000E+00
    34 0.00000000000000E+00
    35 0.81030113461667E-01
    36 0.71909494654578E-02
    37 -.17324588066151E+00
    38 0.35743368238418E+00
    39 0.10386034898266E+00
    40 -.31730496632051E-01
    41 -.43607928083106E-01
    42 0.00000000000000E+00
    43 -.13282532362271E-01
    44 -.79419837357760E-02
    45 0.00000000000000E+00
    46 0.38053943805344E-02
    47 0.21782712219655E-02
    48 -.59836656024999E-02
    49 0.98279287043477E-03
    50 0.00000000000000E+00
    51 0.00000000000000E+00
    52 0.81030113461667E-01
    53 0.71909494654578E-02
    54 -.10233965960347E+00
    55 0.20728708573421E+00
    56 0.80836707960173E-01
    57 -.52864692838912E-01
    58 0.21527003533514E-01
    59 0.00000000000000E+00
    60 -.16722267400309E-01
    61 0.85580131487411E-02
    62 0.00000000000000E+00
    63 0.30072373710554E-02
    64 0.95846828344100E-03
    65 -.39657056544964E-02
    66 -.11776299992851E-02
    67 0.00000000000000E+00
    68 0.00000000000000E+00
    69 0.49253603626180E-01
    70 0.46818321241596E-02
    71 0.43290593947515E-01
    72 0.35603432959664E-02
 Sym=     3bu  
 Ene= -.61673928494796E+00
 Spin= Alpha
 Occup= 2.000000
     1 -.16629580906728E+00
     2 0.34695215512703E+00
     3 0.12436731943597E+00
     4 0.31915360953431E-01
     5 -.23528366959996E-01
     6 0.00000000000000E+00
     7 -.39154990909969E-02
     8 0.77047353627128E-03
     9 0.00000000000000E+00
    10 0.24301754577451E-02
    11 0.27262250892549E-02
    12 -.51564005470000E-02
    13 -.21201925838129E-03
    14 0.00000000000000E+00
    15 0.00000000000000E+00
    16 0.95756458174974E-01
    17 0.63621749515201E-02
    18 0.98447351799982E-01
    19 0.79501837277154E-02
    20 -.97679146105018E-01
    21 0.20621319820837E+00
    22 0.66711046203571E-01
    23 -.11006576185256E+00
    24 0.21717286833324E-01
    25 0.00000000000000E+00
    26 -.49700042100254E-01
    27 0.13986474645947E-02
    28 0.00000000000000E+00
    29 0.49950719831707E-03
    30 0.21269604255208E-02
    31 -.26264676238379E-02
    32 -.34043320196791E-02
    33 0.00000000000000E+00
    34 0.00000000000000E+00
    35 0.52729042564769E-01
    36 0.32599899070687E-02
    37 0.97679146105018E-01
    38 -.20621319820837E+00
    39 -.66711046203571E-01
    40 -.11006576185256E+00
    41 0.21717286833324E-01
    42 0.00000000000000E+00
    43 -.49700042100254E-01
    44 0.13986474645947E-02
    45 0.00000000000000E+00
    46 -.49950719831707E-03
    47 -.21269604255208E-02
    48 0.26264676238379E-02
    49 0.34043320196791E-02
    50 0.00000000000000E+00
    51 0.00000000000000E+00
    52 -.52729042564769E-01
    53 -.32599899070687E-02
    54 0.16629580906728E+00
    55 -.34695215512703E+00
    56 -.12436731943597E+00
    57 0.31915360953431E-01
    58 -.23528366959996E-01
    59 0.00000000000000E+00
    60 -.39154990909969E-02
    61 0.77047353627128E-03
    62 0.00000000000000E+00
    63 -.24301754577451E-02
    64 -.27262250892549E-02
    65 0.51564005470000E-02
    66 0.21201925838129E-03
    67 0.00000000000000E+00
    68 0.00000000000000E+00
    69 -.95756458174974E-01
    70 -.63621749515201E-02
    71 -.98447351799982E-01
    72 -.79501837277154E-02
 Sym=     4ag  
 Ene= -.53435594059810E+00
 Spin= Alpha
 Occup= 2.000000
     1 -.15154364338462E+00
     2 0.32369860703628E+00
     3 0.15103656804777E+00
     4 -.77761582845546E-01
     5 0.24774326582441E-01
     6 0.00000000000000E+00
     7 -.34215288674990E-01
     8 0.14382846003838E-01
     9 0.00000000000000E+00
    10 0.80479348282279E-04
    11 0.38337888153384E-02
    12 -.39142681636207E-02
    13 0.26896418071346E-02
    14 0.00000000000000E+00
    15 0.00000000000000E+00
    16 0.12759657407334E+00
    17 0.15703891437607E-01
    18 0.14348056663523E+00
    19 0.19157936031470E-01
    20 0.91107548110084E-01
    21 -.19923738096999E+00
    22 -.72385931585546E-01
    23 -.14558394178995E+00
    24 0.57928594426283E-02
    25 0.00000000000000E+00
    26 -.45236961381935E-01
    27 0.26911045286618E-02
    28 0.00000000000000E+00
    29 0.10293069577204E-02
    30 -.27562679649711E-02
    31 0.17269610072507E-02
    32 -.48960644007839E-02
    33 0.00000000000000E+00
    34 0.00000000000000E+00
    35 -.72582270169786E-01
    36 -.92625502787833E-02
    37 0.91107548110084E-01
    38 -.19923738096999E+00
    39 -.72385931585546E-01
    40 0.14558394178995E+00
    41 -.57928594426283E-02
    42 0.00000000000000E+00
    43 0.45236961381935E-01
    44 -.26911045286618E-02
    45 0.00000000000000E+00
    46 0.10293069577204E-02
    47 -.27562679649711E-02
    48 0.17269610072507E-02
    49 -.48960644007839E-02
    50 0.00000000000000E+00
    51 0.00000000000000E+00
    52 -.72582270169786E-01
    53 -.92625502787833E-02
    54 -.15154364338462E+00
    55 0.32369860703628E+00
    56 0.15103656804777E+00
    57 0.77761582845546E-01
    58 -.24774326582441E-01
    59 0.00000000000000E+00
    60 0.34215288674990E-01
    61 -.14382846003838E-01
    62 0.00000000000000E+00
    63 0.80479348282279E-04
    64 0.38337888153384E-02
    65 -.39142681636207E-02
    66 0.26896418071346E-02
    67 0.00000000000000E+00
    68 0.00000000000000E+00
    69 0.12759657407334E+00
    70 0.15703891437607E-01
    71 0.14348056663523E+00
    72 0.19157936031470E-01
 Sym=     4bu  
 Ene= -.48386113049878E+00
 Spin= Alpha
 Occup= 2.000000
     1 -.63053126158763E-01
     2 0.13584517676293E+00
     3 0.55059624101536E-01
     4 -.63991357295526E-01
     5 0.11044835745980E+00
     6 0.00000000000000E+00
     7 -.24436042609130E-01
     8 0.53560681540851E-01
     9 0.00000000000000E+00
    10 0.50558316491834E-04
    11 0.14018952659347E-02
    12 -.14524535824265E-02
    13 0.39788702421257E-02
    14 0.00000000000000E+00
    15 0.00000000000000E+00
    16 0.12178098707589E+00
    17 0.24830533049285E-01
    18 0.56731536110752E-01
    19 0.16557423009151E-01
    20 0.12355256560971E+00
    21 -.27183302558726E+00
    22 -.12169850796964E+00
    23 0.27155025588692E-01
    24 0.17441284778787E+00
    25 0.00000000000000E+00
    26 -.85040592496165E-02
    27 0.66014802976506E-01
    28 0.00000000000000E+00
    29 0.14597338929071E-02
    30 -.35999652688459E-02
    31 0.21402313759389E-02
    32 0.17837306355027E-02
    33 0.00000000000000E+00
    34 0.00000000000000E+00
    35 -.21216590768584E+00
    36 -.45213061644401E-01
    37 -.12355256560971E+00
    38 0.27183302558726E+00
    39 0.12169850796964E+00
    40 0.27155025588692E-01
    41 0.17441284778787E+00
    42 0.00000000000000E+00
    43 -.85040592496165E-02
    44 0.66014802976506E-01
    45 0.00000000000000E+00
    46 -.14597338929071E-02
    47 0.35999652688459E-02
    48 -.21402313759389E-02
    49 -.17837306355027E-02
    50 0.00000000000000E+00
    51 0.00000000000000E+00
    52 0.21216590768584E+00
    53 0.45213061644401E-01
    54 0.63053126158763E-01
    55 -.13584517676293E+00
    56 -.55059624101536E-01
    57 -.63991357295526E-01
    58 0.11044835745980E+00
    59 0.00000000000000E+00
    60 -.24436042609130E-01
    61 0.53560681540851E-01
    62 0.00000000000000E+00
    63 -.50558316491834E-04
    64 -.14018952659347E-02
    65 0.14524535824265E-02
    66 -.39788702421257E-02
    67 0.00000000000000E+00
    68 0.00000000000000E+00
    69 -.12178098707589E+00
    70 -.24830533049285E-01
    71 -.56731536110752E-01
    72 -.16557423009151E-01
 Sym=     5ag  
 Ene= -.39301095414849E+00
 Spin= Alpha
 Occup= 2.000000
     1 -.74945387589776E-02
     2 0.16432135540544E-01
     3 0.49653425550574E-01
     4 0.64866439648257E-01
     5 0.24269865890603E+00
     6 0.00000000000000E+00
     7 0.34615522131271E-01
     8 0.91615848803753E-01
     9 0.00000000000000E+00
    10 -.17132445084167E-02
    11 0.20558087191773E-02
    12 -.34256421076062E-03
    13 0.24252223059854E-04
    14 0.00000000000000E+00
    15 0.00000000000000E+00
    16 0.18764333740247E+00
    17 0.53493181067675E-01
    18 -.12446818732586E+00
    19 -.45460131556843E-01
    20 0.91433306507583E-02
    21 -.17080252234262E-01
    22 -.49738941635542E-01
    23 0.17248644219564E+00
    24 0.17968127057571E+00
    25 0.00000000000000E+00
    26 0.91834913539046E-01
    27 0.55855570454743E-01
    28 0.00000000000000E+00
    29 0.13035325125610E-02
    30 -.18315666449788E-02
    31 0.52803413241779E-03
    32 -.44945059365997E-03
    33 0.00000000000000E+00
    34 0.00000000000000E+00
    35 -.14175711183975E+00
    36 -.41430678719052E-01
    37 0.91433306507583E-02
    38 -.17080252234262E-01
    39 -.49738941635542E-01
    40 -.17248644219564E+00
    41 -.17968127057571E+00
    42 0.00000000000000E+00
    43 -.91834913539046E-01
    44 -.55855570454743E-01
    45 0.00000000000000E+00
    46 0.13035325125610E-02
    47 -.18315666449788E-02
    48 0.52803413241779E-03
    49 -.44945059365997E-03
    50 0.00000000000000E+00
    51 0.00000000000000E+00
    52 -.14175711183975E+00
    53 -.41430678719052E-01
    54 -.74945387589776E-02
    55 0.16432135540544E-01
    56 0.49653425550574E-01
    57 -.64866439648257E-01
    58 -.24269865890603E+00
    59 0.00000000000000E+00
    60 -.34615522131271E-01
    61 -.91615848803753E-01
    62 0.00000000000000E+00
    63 -.17132445084167E-02
    64 0.20558087191773E-02
    65 -.34256421076062E-03
    66 0.24252223059854E-04
    67 0.00000000000000E+00
    68 0.00000000000000E+00
    69 0.18764333740247E+00
    70 0.53493181067675E-01
    71 -.12446818732586E+00
    72 -.45460131556843E-01
 Sym=     5bu  
 Ene= -.39078837232820E+00
 Spin= Alpha
 Occup= 2.000000
     1 0.19938357139136E-01
     2 -.41634020746928E-01
     3 -.50717394594074E-01
     4 0.28698732031263E+00
     5 0.17465703128804E-01
     6 0.00000000000000E+00
     7 0.11786640214409E+00
     8 0.84465099255707E-02
     9 0.00000000000000E+00
    10 0.98203336530034E-04
    11 -.10579840078992E-02
    12 0.95978067136920E-03
    13 -.48439851314733E-02
    14 0.00000000000000E+00
    15 0.00000000000000E+00
    16 -.67950531415229E-02
    17 0.39048482637782E-02
    18 -.21686076119152E+00
    19 -.66988395072683E-01
    20 -.47643303720789E-01
    21 0.10983587290651E+00
    22 0.54848050706201E-01
    23 -.13464083022672E+00
    24 0.18065929384502E+00
    25 0.00000000000000E+00
    26 -.43393944293523E-01
    27 0.80660443596217E-01
    28 0.00000000000000E+00
    29 -.28484018191829E-02
    30 0.26400881115025E-02
    31 0.20831370768044E-03
    32 -.97208890709520E-03
    33 0.00000000000000E+00
    34 0.00000000000000E+00
    35 -.82922717166350E-01
    36 -.25035764479423E-01
    37 0.47643303720789E-01
    38 -.10983587290651E+00
    39 -.54848050706201E-01
    40 -.13464083022672E+00
    41 0.18065929384502E+00
    42 0.00000000000000E+00
    43 -.43393944293523E-01
    44 0.80660443596217E-01
    45 0.00000000000000E+00
    46 0.28484018191829E-02
    47 -.26400881115025E-02
    48 -.20831370768044E-03
    49 0.97208890709520E-03
    50 0.00000000000000E+00
    51 0.00000000000000E+00
    52 0.82922717166350E-01
    53 0.25035764479423E-01
    54 -.19938357139136E-01
    55 0.41634020746928E-01
    56 0.50717394594074E-01
    57 0.28698732031263E+00
    58 0.17465703128804E-01
    59 0.00000000000000E+00
    60 0.11786640214409E+00
    61 0.84465099255707E-02
    62 0.00000000000000E+00
    63 -.98203336530034E-04
    64 0.10579840078992E-02
    65 -.95978067136920E-03
    66 0.48439851314733E-02
    67 0.00000000000000E+00
    68 0.00000000000000E+00
    69 0.67950531415229E-02
    70 -.39048482637782E-02
    71 0.21686076119152E+00
    72 0.66988395072683E-01
 Sym=     6bu  
 Ene= -.34584449400401E+00
 Spin= Alpha
 Occup= 2.000000
     1 0.29967521921795E-02
     2 -.64272954224403E-02
     3 -.11906871448225E-01
     4 0.24240338176321E-01
     5 0.29159451132979E+00
     6 0.00000000000000E+00
     7 -.12523660376399E-01
     8 0.10709889456188E+00
     9 0.00000000000000E+00
    10 -.67968504609650E-02
    11 0.70751976923099E-02
    12 -.27834723134491E-03
    13 -.24458999008251E-02
    14 0.00000000000000E+00
    15 0.00000000000000E+00
    16 0.25184118772137E+00
    17 0.10823725742863E+00
    18 -.15347382869272E+00
    19 -.72713755532038E-01
    20 -.14632274487499E-01
    21 0.29076735614458E-01
    22 0.10970593031489E+00
    23 0.97499658787428E-01
    24 -.14257513803060E+00
    25 0.00000000000000E+00
    26 0.70513053927344E-01
    27 -.20828875938995E-01
    28 0.00000000000000E+00
    29 -.36336856101126E-02
    30 0.44464368259883E-02
    31 -.81275121587563E-03
    32 -.26873768909529E-02
    33 0.00000000000000E+00
    34 0.00000000000000E+00
    35 0.13807193654118E+00
    36 0.48997985242378E-01
    37 0.14632274487499E-01
    38 -.29076735614458E-01
    39 -.10970593031489E+00
    40 0.97499658787428E-01
    41 -.14257513803060E+00
    42 0.00000000000000E+00
    43 0.70513053927344E-01
    44 -.20828875938995E-01
    45 0.00000000000000E+00
    46 0.36336856101126E-02
    47 -.44464368259883E-02
    48 0.81275121587563E-03
    49 0.26873768909529E-02
    50 0.00000000000000E+00
    51 0.00000000000000E+00
    52 -.13807193654118E+00
    53 -.48997985242378E-01
    54 -.29967521921795E-02
    55 0.64272954224403E-02
    56 0.11906871448225E-01
    57 0.24240338176321E-01
    58 0.29159451132979E+00
    59 0.00000000000000E+00
    60 -.12523660376399E-01
    61 0.10709889456188E+00
    62 0.00000000000000E+00
    63 0.67968504609650E-02
    64 -.70751976923099E-02
    65 0.27834723134491E-03
    66 0.24458999008251E-02
    67 0.00000000000000E+00
    68 0.00000000000000E+00
    69 -.25184118772137E+00
    70 -.10823725742863E+00
    71 0.15347382869272E+00
    72 0.72713755532038E-01
 Sym=     6ag  
 Ene= -.32686024441648E+00
 Spin= Alpha
 Occup= 2.000000
     1 0.27035423758301E-01
     2 -.67134750528700E-01
     3 -.57054496284402E-01
     4 -.19164841777323E+00
     5 0.17296270806528E+00
     6 0.00000000000000E+00
     7 -.89679386405645E-01
     8 0.70691905382694E-01
     9 0.00000000000000E+00
    10 -.41811535184108E-02
    11 0.47739070315861E-02
    12 -.59275351317530E-03
    13 0.17509645231670E-02
    14 0.00000000000000E+00
    15 0.00000000000000E+00
    16 0.14180098508941E+00
    17 0.82024376484969E-01
    18 0.38526626614799E-01
    19 0.19543690127992E-01
    20 0.10721148907279E-01
    21 -.32123625646441E-01
    22 0.16895860140744E-02
    23 0.13803621663841E+00
    24 -.25058638105336E+00
    25 0.00000000000000E+00
    26 0.42614869251810E-01
    27 -.72704770810948E-01
    28 0.00000000000000E+00
    29 -.84887850928226E-02
    30 0.94987962070362E-02
    31 -.10100111142136E-02
    32 0.35063885165627E-02
    33 0.00000000000000E+00
    34 0.00000000000000E+00
    35 0.23752500558537E+00
    36 0.12648159884194E+00
    37 0.10721148907279E-01
    38 -.32123625646441E-01
    39 0.16895860140744E-02
    40 -.13803621663841E+00
    41 0.25058638105336E+00
    42 0.00000000000000E+00
    43 -.42614869251810E-01
    44 0.72704770810948E-01
    45 0.00000000000000E+00
    46 -.84887850928226E-02
    47 0.94987962070362E-02
    48 -.10100111142136E-02
    49 0.35063885165627E-02
    50 0.00000000000000E+00
    51 0.00000000000000E+00
    52 0.23752500558537E+00
    53 0.12648159884194E+00
    54 0.27035423758301E-01
    55 -.67134750528700E-01
    56 -.57054496284402E-01
    57 0.19164841777323E+00
    58 -.17296270806528E+00
    59 0.00000000000000E+00
    60 0.89679386405645E-01
    61 -.70691905382694E-01
    62 0.00000000000000E+00
    63 -.41811535184108E-02
    64 0.47739070315861E-02
    65 -.59275351317530E-03
    66 0.17509645231670E-02
    67 0.00000000000000E+00
    68 0.00000000000000E+00
    69 0.14180098508941E+00
    70 0.82024376484969E-01
    71 0.38526626614799E-01
    72 0.19543690127992E-01
 Sym=     7ag  
 Ene= -.32096325720329E+00
 Spin= Alpha
 Occup= 2.000000
     1 0.12782653143747E-01
     2 -.30836779003878E-01
     3 -.24999095219235E-01
     4 -.23612202309818E+00
     5 -.81063758611760E-01
     6 0.00000000000000E+00
     7 -.10657814135322E+00
     8 -.14752445064973E-01
     9 0.00000000000000E+00
    10 0.58238384638594E-02